192
Lattice="8.43116035 0.0 0.0 0.158219155128 14.5042431863 0.0 1.16980663624 4.4685149855 14.9100096405"  Properties=species:S:1:pos:R:3:CS:R:2  ENERGY=-2069.84934116 Natoms=192 NAME=COBHUW
O	2.33827271799	4.55315540425	11.5841360926	24.10	31.34
O	7.42092185454	14.4195943364	3.32587354791	24.10	31.33
O	3.46522376617	6.02661871166	10.3270669467	-74.64	-90.59
O	6.29397080636	12.946131029	4.58293426261	-74.64	-90.59
C	3.24898979667	16.9696746647	12.5382820783	21.40	19.91
C	6.51020477586	2.00308350711	2.37172756226	21.40	19.91
C	2.20865205877	17.6040183071	11.6052139935	69.67	66.51
C	7.55054251376	1.36873143354	3.30479564703	69.67	66.51
C	3.32376575782	3.66412326999	9.62482717003	120.85	122.11
C	6.43542881471	15.3086349019	5.28518247048	120.85	122.11
C	2.4150974511	17.1924343523	10.1317422549	130.67	135.14
C	7.34408869027	1.78031538835	4.7782673856	130.67	135.14
C	3.29430728356	3.99669038999	8.15397752233	27.37	27.72
C	6.46488728897	14.9760677819	6.75603211818	27.37	27.72
C	8.78392009904	15.9585340351	12.018728684	157.55	150.75
C	0.975274473486	3.01421570557	2.8912809565	157.55	150.75
C	3.08014737951	4.88853010066	10.5028735024	-16.48	-17.20
C	6.67904719303	14.08421964	4.40713613815	-16.48	-17.20
C	3.64335732205	15.6315736367	12.3870186304	35.30	35.37
C	6.11583725048	3.3411845351	2.52298257894	35.30	35.37
C	8.08876249703	3.81985523281	11.2301791188	152.40	143.91
C	1.67042364434	15.152902939	3.67983052172	152.40	143.91
C	9.15990769485	17.4429915756	12.0935552321	128.23	126.70
C	0.599286877678	1.52975816506	2.8164544084	128.23	126.70
C	3.8576436935	17.7317588176	13.549009581	36.12	38.97
C	5.90155087903	1.24099092308	1.3610000595	36.12	38.97
C	4.4569474335	3.90896416655	7.38121108929	33.67	33.94
C	5.30223870787	15.0637855741	7.52879855122	33.67	33.94
C	2.10882712022	4.43916611632	7.55136876748	38.60	38.64
C	7.65036745231	14.5335836244	7.35863244188	38.60	38.64
C	9.01334040333	17.9184078454	13.5480821534	144.84	146.07
C	0.745854169202	1.05434189525	1.36192748714	144.84	146.07
C	3.24645201741	4.67071107301	5.43169074388	40.62	37.46
C	6.51274255512	14.3020386677	9.47831889663	40.62	37.46
C	4.43702460159	4.24669958785	6.02555638546	39.32	39.09
C	5.32216997094	14.726058584	8.88445325506	39.32	39.09
C	7.33184664544	3.35210288775	10.0085461399	168.97	168.30
C	2.42734792709	15.6206468529	4.90146350063	168.97	168.30
C	2.07959628729	4.77196087766	6.19737500223	36.27	37.11
C	7.67958985408	14.2007972942	8.71263463828	36.27	37.10
C	4.64802282051	15.0874349789	13.1925232591	39.00	40.85
C	5.11116332086	3.88532319293	1.71748638142	39.00	40.85
C	5.26719880546	15.8644001298	14.17344661	37.02	41.76
C	4.49199576707	3.10834961088	0.736563030497	37.02	41.75
C	4.85404665482	17.1857231487	14.3591682102	38.92	41.17
C	4.90514791771	1.78702659198	0.550841430307	38.92	41.17
C	6.5874257735	3.71046092727	11.2777983125	174.87	166.87
C	3.17176879903	15.2622888134	3.6322028969	174.87	166.87
O	3.13926667588	11.8490262885	11.538253718	30.15	47.30
O	6.61991946549	7.1237234522	3.37175592253	30.15	47.30
O	2.15343638963	13.3969451729	10.2568691057	-73.98	-81.85
O	7.60574975173	5.57580456775	4.65314053484	-73.98	-81.85
C	2.19664608643	11.3546230456	8.06806399837	27.87	27.64
C	7.5625484861	7.61812669513	6.84193721099	27.87	27.64
C	3.43587489699	10.3992039547	11.5132553275	70.13	67.01
C	6.32331967554	8.57354578599	3.39674588181	70.13	67.01
C	2.18554224825	11.0287165422	9.5391834432	120.63	121.45
C	7.57364389312	7.94403319846	5.37082619732	120.63	121.44
C	2.40762744303	9.70427399401	12.4113593903	23.81	22.13
C	7.35155869834	9.26847574668	2.49865025017	23.81	22.13
C	3.24408286135	10.0301552039	10.0255180657	129.00	134.18
C	6.51510328002	8.94259453683	4.88449157485	129.00	134.18
C	2.15191878077	8.33167265787	12.2702217661	35.91	36.76
C	7.60727579176	10.6410770828	2.63978787442	35.91	36.76
C	2.46216861933	12.2348867731	10.4328021287	-16.68	-17.05
C	7.29701752204	6.73786296763	4.47720751182	-16.68	-17.05
C	2.21871043306	11.9647692578	5.33033976532	40.49	38.14
C	7.54048413947	7.00798048292	9.5796698752	40.49	38.14
C	5.82744097955	11.1459771204	11.1679571554	152.76	143.56
C	3.93175359298	7.82678105147	3.74204405394	152.76	143.56
C	3.36188303376	11.8374924611	7.45597018812	38.22	37.74
C	6.39731153877	7.13525727956	7.4540394524	38.22	37.73
C	1.04089419449	11.1933771039	7.29547461969	34.41	33.92
C	8.71830037804	7.77937263682	7.61453502082	34.41	33.92
C	5.32149547811	8.77331369932	11.9377305265	155.81	149.93
C	4.43769909442	10.1994444725	2.97227911399	155.81	149.93
C	3.37802870583	12.138400574	6.09419446187	36.40	36.65
C	6.38115743554	6.83435759783	8.81581517865	36.40	36.65
C	5.02829344578	10.7200011749	13.4757765222	145.29	145.21
C	4.73089269559	8.25274856583	1.4342331183	145.29	145.21
C	4.91524001664	10.2487498983	12.0164775642	128.22	126.90
C	4.84395455589	8.72399984244	2.89353207632	128.22	126.90
C	1.04865086201	11.4989392173	5.93203795485	39.35	38.55
C	8.71053527936	7.47381052342	8.97797168566	39.35	38.55
C	6.58176846491	10.6958374693	9.93754733857	169.59	167.97
C	3.17742610762	8.2769122714	4.97246230194	169.59	167.97
C	1.69003452332	10.4163529349	13.3837757005	38.23	38.97
C	8.06916004921	8.556405237	1.52622550888	38.23	38.97
C	1.20604376343	7.69123328652	13.0731043039	38.29	39.62
C	8.5531508091	11.2815164542	1.83689690545	38.29	39.62
C	7.32984846044	11.0405454602	11.2079798736	174.05	166.51
C	2.42934611209	7.93221271165	3.70202976692	174.05	166.51
C	8.92491439358	8.40923090193	14.0355043955	37.72	41.74
C	0.834280178953	10.5635188388	0.874505244983	37.72	41.74
C	9.17268933394	9.77509574095	14.1836145894	38.32	40.57
C	0.586505238587	9.19765399974	0.726395051115	38.32	40.57
H	2.94261829188	8.98786986791	9.8870615504	27.81	27.54
H	6.81656784949	9.98487987278	5.02294809012	27.81	27.54
H	2.70478368956	16.1441123056	10.0207544601	27.45	27.35
H	7.05440245181	2.8286374351	4.88925518045	27.45	27.35
H	1.48004804364	17.3468257607	9.58058887168	28.06	28.95
H	8.27914652889	1.62592398002	5.32941233768	28.06	28.95
H	3.40176242222	4.26578773488	13.6901050495	22.44	23.01
H	6.35743215031	14.706970437	1.21989615988	22.44	23.01
H	9.14200834143	4.46926535877	13.6550398536	28.90	29.38
H	0.617186231101	14.5034928131	1.25496978694	28.90	29.38
H	6.55085983106	9.63997796518	9.6649594933	32.89	31.56
H	3.20833474147	9.33278020667	5.24505014722	32.89	31.56
H	5.18281132151	8.35640968234	10.9322809301	30.30	29.47
H	4.57638325102	10.6163484895	3.97772027921	30.30	29.47
H	5.3825455102	3.57536001382	7.85257197098	24.79	24.23
H	4.37664906233	15.3973897269	7.05742923837	24.79	24.23
H	7.52701957639	16.7987834756	9.74588177034	32.56	31.32
H	2.23217499614	2.17396626509	5.16412787018	32.56	31.32
H	1.17831367703	10.6764289382	9.82548878636	27.47	27.70
H	8.5808808955	8.29632923368	5.08452085415	27.47	27.70
H	7.26555243161	4.04014459044	9.16315369159	32.05	31.06
H	2.49364214092	14.9326051503	5.74685594893	32.05	31.06
H	7.96131707718	17.8156320008	13.8462164145	30.02	30.66
H	1.79787749535	1.15711773992	1.063793226	30.02	30.66
H	1.85794951285	11.4857360202	13.5009856917	22.41	22.67
H	7.90123662852	7.48701372053	1.40901551769	22.41	22.67
H	5.46332445752	12.1730273496	11.1181711535	29.61	29.31
H	4.29586168385	6.79972239111	3.79183005581	29.61	29.31
H	4.38637019021	10.1242722468	14.13900532	29.65	30.30
H	5.37281595116	8.84847749384	0.771004320526	29.65	30.30
H	8.93200499943	15.5425574458	11.0141812218	30.25	29.28
H	0.827189573099	3.43019229492	3.89582841873	30.25	29.28
H	4.33159294142	3.30295765407	9.89513017085	27.50	27.61
H	5.42760163111	15.6697920866	5.01487946966	27.50	27.61
H	6.05845477314	15.4433901377	14.7941402038	23.47	23.83
H	3.70073136823	3.52936803411	0.11586100553	23.47	23.83
H	4.14454764905	13.3327924738	0.224496506639	22.65	23.03
H	5.61463849232	5.63995726685	14.6855131339	22.65	23.03
H	2.69409297824	7.73516806311	11.537360015	21.49	21.37
H	7.06510159429	11.2375816776	3.37264962553	21.49	21.37
H	7.78284627489	10.2148987894	11.7588718909	33.06	32.04
H	1.97634829764	8.7578593824	3.15113774965	33.06	32.04
H	8.44690132637	4.84776544036	11.1683871446	29.62	29.45
H	1.31229324616	14.1249843003	3.74162249592	29.62	29.45
H	6.63619160497	11.3930607056	9.09898413016	32.07	30.95
H	3.12300296756	7.57968903509	5.81102551035	32.07	30.95
H	9.38924368753	15.3778800218	12.7270051715	30.45	30.28
H	0.369942453837	3.59487815003	2.18300446898	30.45	30.28
H	4.18161102995	10.1924803341	9.48069648385	28.11	28.97
H	5.57758354258	8.78026940661	5.42931315667	28.11	28.97
H	1.03259793271	6.62218744762	12.9349344481	22.60	23.25
H	0.295436289824	12.3505622931	1.97507519243	22.60	23.25
H	6.29594369788	17.3966117625	11.8440097481	33.28	32.27
H	3.46324244349	1.57613797815	3.06599989244	33.28	32.27
H	3.16806751963	14.9946584904	11.6403887945	21.43	21.96
H	6.5911270529	3.97809125026	3.26962084605	21.43	21.96
H	7.90039351249	11.9700724576	11.2451781531	31.60	30.11
H	1.85879262888	7.00267728306	3.66483148746	31.60	30.11
H	3.22199322123	4.91758387922	4.36922121006	24.25	23.75
H	6.53719292014	14.0551658615	10.5407884305	24.25	23.75
H	1.20031057439	4.53926928316	8.14888510148	24.95	24.31
H	8.55888399814	14.4334804575	6.76112453903	24.95	24.31
H	7.72951918567	15.8275981149	12.2972773597	31.42	30.70
H	2.02967538686	3.1451516258	2.6127238497	31.42	30.70
H	4.72671927122	8.17560344863	12.6394728648	30.05	29.83
H	5.03246687015	10.7971547232	2.27053677574	30.05	29.83
H	4.26545048847	11.9938904856	8.04945642747	24.83	24.16
H	5.4937356529	6.97886768623	6.86055321304	24.83	24.16
H	8.56152295133	10.82590498	7.77100049459	24.85	24.23
H	1.19766319004	8.14685319184	7.13900071476	24.85	24.23
H	1.14581155389	5.11049725919	5.74684751777	23.34	22.78
H	8.61337458748	13.8622609127	9.16316212275	23.34	22.78
H	9.62506324252	17.3155124311	14.2310398664	29.42	30.29
H	0.134131330008	1.65724574072	0.678969774146	29.42	30.29
H	5.35457935132	4.18887025901	5.43811528807	23.64	23.30
H	4.40461522121	14.7838794817	9.47189435244	23.64	23.30
H	8.57121035457	11.3810041463	5.34023794757	23.90	23.41
H	1.18798421796	7.59174559439	9.56977169295	23.90	23.41
H	8.61014545307	10.3516690726	14.9197729242	22.87	23.67
H	1.14904911946	8.62108066804	-0.0097632836853	22.87	23.67
H	2.23036229667	12.191188069	4.26341857883	24.36	23.97
H	7.5288238447	6.78156167172	10.6465910617	24.36	23.97
H	6.01934262028	4.64170788141	11.2998120721	31.59	30.31
H	3.73984352109	14.3310502904	3.61019756839	31.59	30.31
H	6.06868177065	10.6132120979	13.8096841967	29.95	30.60
H	3.69050437072	8.35953764283	1.1003254438	29.95	30.60
H	6.37709361625	8.6610865239	12.2191289344	31.38	30.65
H	3.38210095628	10.3116632168	2.69088070615	31.38	30.65
H	4.74051264955	11.7758438166	13.574193457	28.85	29.52
H	5.01868192298	7.1969143552	1.33581618353	28.85	29.52
H	4.29613991214	12.5068338502	5.6345023061	23.30	22.60
H	5.46305466039	6.4659243217	9.27550733441	23.30	22.60
H	4.9435940089	14.0465239221	13.0467737901	22.50	22.88
H	4.81559213247	4.92622581858	1.86322741923	22.50	22.88
H	8.1801815687	7.91593214101	14.6607170913	25.62	25.84
H	1.57901300383	11.0568175997	0.249292549229	25.62	25.84
62
Lattice="6.265332446 0.0 0.0 1.69572475717 7.62373170428 0.0 0.677006762785 0.474085175524 12.0657897552"  Properties=species:S:1:pos:R:3:CS:R:2  ENERGY=-845.80604030 Natoms=62 NAME=QUGWUK
O	1.30521285115	4.35852863872	1.52384789218	198.20	202.27
O	7.33285111481	3.73928197575	10.541941863	198.20	202.27
O	8.17400332235	6.81383724032	9.39586845597	124.16	130.72
O	0.46406064361	1.28397963949	2.66991503387	124.16	130.73
O	5.64658700963	6.03673552638	1.96586083092	213.28	214.65
O	2.99147695633	2.0610750881	10.0999289243	213.28	214.65
O	3.87613563237	5.76083534678	8.92853104349	-80.06	-69.48
O	4.76192833359	2.33697526769	3.13725244635	-80.06	-69.49
C	2.77474031102	6.17100160069	8.56362555117	-0.63	0.13
C	5.8633173896	1.92680901378	3.502164204	-0.63	0.13
C	2.2543104714	6.00815307976	7.21810155106	30.42	38.74
C	6.38374722923	2.08965753472	4.84768820411	30.42	38.74
C	7.4725179057	6.64199796732	6.61201835157	24.25	36.02
C	1.16554606026	1.45581264715	5.4537714036	24.25	36.02
H	6.83525214662	7.38572425532	7.08719996027	24.06	23.53
H	1.80280555401	0.712092624483	4.9785897949	24.06	23.53
C	2.9158919857	5.06627938782	6.25706220717	129.70	133.60
C	5.72217198026	3.03153749199	5.808727548	129.70	133.60
H	2.86677177932	4.0305823425	6.63865854513	29.31	28.83
H	5.77129218664	4.06723453731	5.42713121004	29.31	28.83
H	3.98861088044	5.29014598144	6.13757605209	27.66	26.99
H	4.64945308552	2.80767089836	5.92820743775	27.66	26.99
C	7.35153433617	6.18009259807	5.24279259882	29.92	31.17
C	1.28652336446	1.91772428173	6.82299715635	29.92	31.17
C	2.11043964244	5.24071877378	5.00165248364	27.24	26.67
C	6.52762432352	2.8570918407	7.06413727154	27.24	26.68
C	2.22185604933	4.60108471903	3.76902977421	56.57	66.10
C	6.41620791663	3.49672589544	8.29675371563	56.57	66.10
H	3.01579271155	3.87674336962	3.58456585633	22.76	23.53
H	5.62226498908	4.22107351019	8.48121763351	22.76	23.53
C	1.2893302334	4.90109389788	2.76943357444	14.12	12.78
C	7.34872746723	3.1967167166	9.29635618073	14.12	12.78
C	6.50457416545	5.84108172475	3.01190820544	15.38	16.19
C	2.13348980051	2.25673515505	9.05388154974	15.38	16.19
C	6.41518040211	6.49166131528	4.24130426865	65.89	65.90
C	2.22288356385	1.60614929919	7.82448548652	65.89	65.91
H	5.6371200923	7.23268097967	4.41950911942	24.12	23.84
H	3.00094387366	0.865135900141	7.64627437042	24.12	23.84
C	2.35963697515	6.98766888903	10.751229028	118.67	114.93
C	6.27842699081	1.11014799077	1.31455446183	118.67	114.93
H	2.91180072361	6.10425701415	11.0928400143	25.90	26.31
H	5.72626324235	1.99355986566	0.972949740872	25.90	26.31
H	7.72327530618	7.11403437914	11.358320946	26.77	27.01
H	0.914788659776	0.983776235338	0.707468809137	26.77	27.01
H	2.99682128491	7.88056647724	10.817115264	27.47	26.93
H	5.64124268105	0.217244137233	1.24867449116	27.47	26.93
C	4.64576280471	7.04798524449	2.13858978112	113.86	111.71
C	3.99230116125	1.04982536998	9.92719997405	113.86	111.71
H	3.97894347248	6.81168823129	2.98190352835	27.33	27.31
H	4.65912049348	1.28612238319	9.08388622682	27.33	27.31
H	4.06440887237	7.04243415994	1.2102178806	26.50	26.46
H	4.57365509359	1.05538271986	10.8555718746	26.50	26.46
H	3.41149857818	0.411939342992	2.29613783081	26.17	26.30
H	5.22655912245	7.68587127148	9.76965192436	26.17	26.30
C	2.45042164229	3.56569467501	1.16794568259	111.10	111.47
C	6.18764232367	4.5321222048	10.8978440726	111.10	111.47
H	3.37198312644	4.16837579898	1.24348679589	26.65	26.75
H	5.26608083952	3.92943481549	10.8222966939	26.65	26.75
H	2.27130831832	3.24770399204	0.13514322086	24.99	24.90
H	6.36675564764	4.85010662243	11.930640269	24.99	24.90
H	2.54996524419	2.69448766772	1.82956478889	25.93	26.25
H	6.08809872177	5.40332294675	10.2362249663	25.93	26.25
108
Lattice="11.983069428 0.0 0.0 0.0 6.48024023448 0.0 -1.34408098239 0.0 11.1755303792"  Properties=species:S:1:pos:R:3:CS:R:2  ENERGY=-1568.99764466 Natoms=108 NAME=MELYUY
O	1.83760369678	5.64527193981	9.3889865413	-20.96	-32.79
O	8.12935024916	2.40514583103	7.37430902757	-20.96	-32.77
O	8.80138474882	0.834968294674	1.78654383795	-20.96	-32.78
O	2.50965017951	4.07508242038	3.80122135167	-20.96	-32.78
O	0.236210264565	0.277923329244	8.28164307852	-11.37	6.35
O	9.73074368138	3.51803745495	8.48165249035	-11.38	6.35
O	10.402778181	6.20231690524	2.89388730072	-11.37	6.34
O	0.908256747295	2.96220277953	2.6938778889	-11.38	6.33
O	2.07256772213	0.96786053463	6.38344099964	-26.93	-34.28
O	7.89438622382	4.20798664341	10.3798545692	-26.93	-34.27
O	8.56642072348	5.51237969985	4.7920893796	-26.93	-34.28
O	2.74461420486	2.27225359108	0.795675810019	-26.93	-34.28
O	3.7232115697	0.343914092584	7.79330903319	-12.28	-22.01
O	6.24374237625	3.58402821829	8.96998653568	-12.28	-22.01
O	6.91578885898	6.1363261419	3.38222134605	-12.28	-22.03
O	4.39524606936	2.89621201619	2.20554384357	-12.28	-22.01
C	1.44690770115	6.40602908551	8.47034047281	-6.90	-3.76
C	8.52004624479	3.16591495981	8.29295509606	-6.91	-3.76
C	9.19209272752	0.0742111489676	2.70518990644	-6.90	-3.76
C	2.11894220081	3.31432527467	2.88257528318	-6.91	-3.76
C	2.50488091788	0.473475039239	7.45616537484	-5.17	-4.90
C	7.46207302807	3.71358916495	9.30713019403	-5.17	-4.90
C	8.13410752773	6.00676519524	3.71936500441	-5.17	-4.90
C	3.17691541754	2.76665106954	1.86840018521	-5.17	-4.90
N	0.18142367114	0.840768100277	1.14024897142	189.21	187.01
N	11.1296112572	4.08089420905	4.4475162182	189.21	187.01
N	10.4575647745	5.63946015114	10.0352814078	189.21	187.01
N	-0.490610828521	2.39934602543	6.72801416104	189.21	187.01
H	0.677774389917	1.61522189434	1.66833085804	19.24	19.35
H	10.6332605384	4.85533602005	3.91943433158	19.24	19.35
H	9.96122603876	4.86501834014	9.5071995212	19.24	19.35
H	0.00573989025601	1.62490421444	7.25609604767	19.24	19.35
H	11.3723522946	0.500988166646	1.76792214806	18.75	18.94
H	-0.0613173662631	3.74111427542	3.81984304156	18.75	18.94
H	-0.733351865924	5.97924008477	9.40760823119	18.75	18.94
H	10.7003177949	2.73912595906	7.35568733768	18.75	18.94
C	10.2972193225	1.40292983635	11.0392109814	129.44	129.64
C	-0.330265376505	4.64304396206	5.72408458744	129.44	129.64
C	0.341769123156	5.07731039813	0.136319397813	129.44	129.64
C	10.9692658052	1.83718428935	5.45144579181	129.44	129.64
H	-0.82414758298	1.78293693405	10.4757071416	27.30	27.11
H	10.7911015289	5.02305105976	6.28758842729	27.30	27.11
H	11.4631360286	4.69730330043	0.699823237665	27.30	27.11
H	-0.152113083319	1.45718917472	4.88794195196	27.30	27.11
H	10.9650118155	2.23493831288	0.0967153533534	27.02	27.45
H	0.346023112803	5.47506442165	5.49104983627	27.02	27.45
H	-0.326023369928	4.24528993854	11.0788150259	27.02	27.45
H	10.2929773159	1.00517581283	5.68448054298	27.02	27.45
C	1.08452769858	6.15724858112	0.902409009414	128.58	129.94
C	10.2265072298	2.91713445541	4.68535618021	128.58	129.94
C	9.55446074703	0.322991653362	10.2731213698	128.58	129.94
C	0.41249319892	3.56310577907	6.49017419904	128.58	129.94
H	1.42406797082	5.79432934042	1.87971220275	27.34	27.62
H	9.88696695752	2.55421521472	3.70805298687	27.34	27.62
H	9.21493245785	0.685910894059	9.29581817649	27.34	27.62
H	0.752021488093	3.92602501977	7.46747739238	27.34	27.63
H	1.94759629106	6.51455974532	0.329845969075	26.87	26.77
H	9.36343863728	3.27444561962	5.25791922055	26.87	26.77
H	8.69139215454	-0.0343314939112	10.8456844102	26.87	26.77
H	1.2755617914	3.20579461486	5.9176111587	26.87	26.77
N	5.18639227913	2.32768727025	6.68734362341	189.05	180.19
N	4.78056166681	5.56780139596	10.0759399624	189.05	180.19
N	5.45259616648	4.15255296423	4.48817477277	189.05	180.19
N	5.85842677879	0.912438838526	1.09957843378	189.05	180.19
H	4.64875988618	1.52152627448	7.14169368384	18.51	17.95
H	5.31819405977	4.76165238326	9.62160188503	18.51	17.95
H	5.99022855943	4.95870197693	4.03383669541	18.51	17.95
H	5.32079438584	1.71858785122	1.55392849421	18.51	17.95
H	5.9679759995	2.60831877318	7.32877336375	21.35	22.50
H	3.99897794644	5.84843289889	9.43452220512	21.35	22.50
H	4.6710124461	3.8719214613	3.8467570155	21.35	22.50
H	6.64002248224	0.631807335591	1.74100817412	21.35	22.50
C	5.69893212471	1.85926908631	5.36649781264	129.97	127.61
C	5.61209082056	5.09938321202	0.221267376988	129.97	127.61
C	4.9400563209	4.62097114817	5.80903256661	129.97	127.61
C	5.02689762505	1.38085702247	10.9542630023	129.97	127.61
H	4.84437151152	1.4720122316	4.79419839982	26.44	26.24
H	6.46665143375	4.71212635731	0.7935667898	26.44	26.24
H	5.79461693409	5.00822800288	6.38133197942	26.44	26.24
H	4.17233701186	1.76811387717	10.3819635894	26.44	26.24
H	6.39822810732	1.03679913305	5.55050982677	26.66	27.20
H	4.91280682102	4.27692524183	0.0372553628517	26.66	27.20
H	4.24077232136	5.44344110143	5.62502055248	26.66	27.20
H	5.72619360766	2.20331499266	11.1382750164	26.66	27.20
C	4.2546726819	3.48580299819	6.53997583558	129.45	127.53
C	5.71228126405	0.245688872482	10.2233077502	129.45	127.53
C	6.38432774678	2.99443723629	4.6355425606	129.45	127.53
C	4.92670718156	6.234551362	0.952210645957	129.45	127.53
H	3.94242984181	3.79268940624	7.54450456266	27.26	27.09
H	6.02452410414	0.552563297464	9.21879100621	27.26	27.09
H	6.69657058687	2.68755082824	3.63102581659	27.26	27.09
H	4.61446434147	5.92766495395	1.95673937304	27.26	27.09
H	3.38276058418	3.12275194373	5.98368580352	27.06	26.79
H	6.58419336177	6.3628780525	10.7796097653	27.06	26.79
H	7.25622786143	3.35747630768	5.19184457572	27.06	26.79
H	4.05480706691	0.117362181978	0.395920613901	27.06	26.79
O	3.03976918794	0.29684459587	3.89530042975	270.84	263.98
O	8.27125375733	3.53697070465	1.69246475987	270.85	263.97
O	7.59921925767	6.18338365554	7.2802299495	270.84	263.97
O	2.36773468828	2.94326952984	9.48306561938	270.85	263.97
H	2.6996417453	0.592610715492	4.77564860835	25.59	25.21
H	8.61139318304	3.8327248412	0.812116581274	25.59	25.21
H	7.93934670031	5.88762951899	6.3998817709	25.59	25.21
H	2.02760724563	2.64750341021	10.363413798	25.59	25.21
H	2.82379832764	5.8198173291	3.86592992658	26.68	26.46
H	8.4872366007	2.57969122032	1.72183526304	26.68	26.46
H	7.81519011797	0.660422905385	7.30960045266	26.68	26.46
H	2.15176382798	3.90054901416	9.45369511621	26.68	26.46
168
Lattice="6.810229092 0.0 0.0 0.0 19.6040820995 0.0 -2.93884540099 0.0 11.3874385466"  Properties=species:S:1:pos:R:3:CS:R:2  ENERGY=-2402.87620522 Natoms=168 NAME=RAVFOK
N	4.09694528877	18.664038937	7.28394862764	64.90	63.88
N	1.71013705798	8.86199448215	9.79720919221	64.90	63.88
N	-0.225554787527	0.940049972714	4.10348991893	64.90	63.88
N	2.16124663303	10.7420876173	1.59022935436	64.90	63.88
H	4.46440481989	17.7510460045	7.66552576366	15.89	17.08
H	1.34267071663	7.94900835985	9.41563205618	15.89	17.08
H	-0.593021128873	1.85303609502	3.7219127829	15.89	17.08
H	2.52871297438	11.6550737397	1.97180649038	15.89	17.08
C	3.92737058438	0.0864081867193	8.14446193479	11.97	7.85
C	1.87971176237	9.88845264158	8.93669588506	11.97	7.85
C	-0.0559800831362	19.5176739128	3.24297661178	11.97	7.85
C	1.99167192864	9.71563626815	2.45074266151	11.97	7.85
O	4.11999791425	19.5918168769	9.37439611903	-1.95	8.09
O	1.6870844325	9.78977242204	7.70676170082	-1.95	8.09
O	-0.248607413003	0.0122652225947	2.01304242753	-1.95	8.09
O	2.18430606874	9.81430967746	3.68067684575	-1.95	8.09
C	3.50664825153	1.42351494618	7.56210562467	14.70	10.26
C	2.30042728499	11.225559401	9.51905219518	14.70	10.26
C	0.36473543948	18.1805671533	3.82533292189	14.70	10.26
C	1.57095640603	8.37852950868	1.86838635139	14.70	10.26
O	3.37783276826	2.39997240362	8.31333518558	-23.58	-41.28
O	2.42924957849	12.2020100483	8.76782263427	-23.58	-41.29
O	0.493550922755	17.2041165061	3.07410336098	-23.58	-41.29
O	1.44214092275	7.40207205124	2.6196159123	-23.58	-41.28
N	3.32827473115	1.46688248504	6.21650650953	70.38	68.96
N	2.47880761559	11.2689269399	10.8646513103	70.38	68.96
N	0.543115770087	18.1371996145	5.17093203704	70.38	68.96
N	1.39258288565	8.33515515959	0.522787236247	70.38	68.96
H	3.15913588143	2.40267606457	5.78365515867	18.22	19.11
H	2.64794646532	12.2047205194	11.2975026612	18.22	19.11
H	0.712254619816	17.2014060349	5.60378338789	18.22	19.11
H	1.22343722569	7.39936158006	0.089935885389	18.22	19.11
C	3.21030113259	0.462959373674	3.99853747839	52.35	51.81
C	5.53561980491	10.2650038285	1.69518179489	52.35	51.81
C	0.661082558419	19.1411227258	7.38890106818	52.35	51.81
C	-1.66422930367	9.33907827096	9.69225675167	52.35	51.81
H	2.88563708109	1.42029370782	3.58604190229	24.31	24.51
H	5.86028385642	11.2223313525	2.107677371	24.31	24.51
H	0.985746609922	18.1837883917	7.80139664428	24.31	24.51
H	-1.9889001654	8.38175074704	9.27976117557	24.31	24.51
C	3.3852627282	18.9692393538	3.15689531605	28.62	26.06
C	5.36065820931	9.16719489891	2.53682395723	28.62	26.06
C	0.486127773045	0.634842745727	8.23054323051	28.62	26.06
C	-1.4892745183	10.4368872006	8.85061458934	28.62	26.06
C	3.80998266552	17.7333666498	3.70305525855	29.32	27.27
C	4.93593827199	7.9313221949	1.99066401474	29.32	27.27
C	0.0614010254935	1.87071544974	7.68438328802	29.32	27.26
C	-1.06455458097	11.6727599046	9.39677453183	29.32	27.27
C	4.03825473445	17.6384184358	5.07453324424	49.16	51.43
C	4.70767301328	7.83638079112	0.619186029045	49.16	51.43
C	-0.166864233212	1.96566366374	6.3128984921	49.16	51.43
C	-0.836282512039	11.7677013084	10.7682525175	49.16	51.43
H	4.35853980865	16.689331289	5.50724839051	23.41	23.91
H	4.38738112886	6.88728683418	0.186470882768	23.41	23.91
H	-0.487149307409	2.91475081046	5.88019015605	23.41	23.91
H	-0.515997437843	12.7167952653	11.2009676638	23.41	23.91
C	3.86630326011	18.7458638396	5.9144728493	43.99	42.41
C	1.94077227641	8.94381938469	11.1666849705	43.99	42.41
C	0.00508043090263	0.858225070174	5.47296569727	43.99	42.41
C	1.9306114146	10.6602627148	0.220753576017	43.99	42.41
C	3.45856803414	0.370183622754	5.37214025556	42.02	42.88
C	5.28735290336	10.1722280776	0.321579017724	42.02	42.88
C	0.412822467099	19.2338984767	6.01529829101	42.02	42.88
C	-1.41596921235	9.43186083211	11.0658595288	42.02	42.88
C	3.11988172094	19.0861777975	1.68468042163	149.33	153.12
C	5.62603921657	9.28413334265	4.00903885165	149.33	153.12
C	0.751501970073	0.517911112218	9.70275812493	149.33	153.12
C	-1.75464871532	10.3199487569	7.37839969492	149.33	153.12
H	2.80356020007	0.496697248596	1.40964250952	29.14	29.08
H	5.94236073743	10.2987348932	4.28407676376	29.14	29.08
H	1.06783030117	19.1073916611	9.97779603704	29.14	29.08
H	-2.07097704642	9.30534720627	7.10335497258	29.14	29.08
H	2.3327350118	18.382047781	1.3753666265	28.40	28.37
H	-0.397043166293	8.58000332614	4.31835264678	28.40	28.37
H	1.53865548944	1.2220343185	10.0120719201	28.40	28.37
H	4.26842685731	11.0240787734	7.06908589979	28.40	28.37
H	4.01881834063	18.8345466428	1.10474174285	28.74	28.75
H	4.72710259688	9.03250899816	4.58897753044	28.74	28.75
H	-0.147434649613	0.769535456709	10.2826968037	28.74	28.75
H	-0.855718905868	10.5715799116	6.79846101613	28.74	28.75
C	4.00348851494	16.54072528	2.81196402277	149.50	152.35
C	4.74243242257	6.73868082516	2.88175525051	149.50	152.35
C	-0.132104823927	3.06335681948	8.57547452379	149.50	152.35
C	-0.871048731554	12.8654012743	8.50568329606	149.50	152.35
H	4.2560186199	15.6464059957	3.3952601445	28.17	28.37
H	4.48990231761	5.8443615408	2.29845912878	28.17	28.37
H	-0.384634928887	3.95767610384	7.99217159183	28.17	28.37
H	-0.618518626594	13.7597205587	9.08897941779	28.17	28.37
H	4.81039169868	16.7234369163	2.08634092325	28.57	28.55
H	3.93552923883	6.92139246147	3.60737835003	28.57	28.55
H	-0.939008007663	2.88064518317	9.30109762332	28.57	28.55
H	-0.0641455478175	12.682689638	7.78006019653	28.57	28.55
H	3.09289959328	16.3357510048	2.22827290776	28.56	28.78
H	5.65302134423	6.53371336018	3.46544636553	28.56	28.78
H	0.778484097736	3.26833109469	9.15916563881	28.56	28.78
H	-1.78163765322	13.0703755496	7.92199218104	28.56	28.78
O	-1.57129691748	5.83998256349	10.4877459915	249.25	245.98
O	0.568143362	15.6420202081	6.5934118284	249.25	245.98
O	5.44268060849	13.7641063462	0.899692555115	249.25	245.98
O	3.30324032901	3.96206189137	4.79402671817	249.25	245.98
H	-1.40852563195	5.03127466905	11.0600231625	21.90	21.85
H	0.405372076472	14.8333191239	6.02113465734	21.90	21.85
H	5.27990932297	14.5728074305	0.327415384056	21.90	21.85
H	3.46601161454	4.77076297559	5.36630388923	21.90	21.85
H	-0.722551686203	5.96176308011	9.98120115159	23.20	23.34
H	-0.280601869278	15.763807535	7.09995666826	23.20	23.34
H	4.59393537722	13.6423190194	1.40623739498	23.20	23.34
H	4.15198556029	3.84027456452	4.2874818783	23.20	23.34
O	3.20189730989	5.13833147037	8.75881951141	263.49	251.65
O	2.60518503685	14.9403759252	8.32233830844	263.49	251.65
O	0.669486381118	14.4657506291	2.62861903516	263.49	251.65
O	1.26620546439	4.66371298449	3.06510023812	263.49	251.65
H	3.25213636991	4.16617126749	8.58882938304	24.11	24.25
H	2.55493916661	13.9682157224	8.49232843681	24.11	24.25
H	0.619247321106	15.437910832	2.79860916352	24.11	24.25
H	1.3164445244	5.63587318738	2.89511010976	24.11	24.25
H	3.92893012684	5.35415444053	9.40866519182	22.46	22.60
H	1.87814540968	15.1561988954	7.67249262803	22.46	22.60
H	-0.0575464358274	14.249927659	1.97877335474	22.46	22.60
H	1.99323828133	4.44788320411	3.71494591854	22.46	22.60
O	3.79024662161	6.15639261734	6.31471682327	254.02	243.39
O	2.01682891491	15.9584370722	10.7664409966	254.02	243.39
O	0.0811370694021	13.4476894822	5.0727217233	254.02	243.39
O	1.8545547761	3.6456450273	0.620997549983	254.02	243.39
H	3.09669289088	6.83213759899	6.0775642156	22.57	22.48
H	2.71038945587	16.6341820539	11.0035936043	22.57	22.48
H	0.77469761036	12.7719445005	5.30987433097	22.57	22.48
H	1.16099423515	2.96990004565	0.383844942312	22.57	22.48
H	3.56345237239	5.83733338438	7.23514652597	22.38	22.58
H	2.24362997436	15.6393778392	9.84601129388	22.38	22.58
H	0.307938128853	13.7667487151	4.1522920206	22.38	22.58
H	1.62776052688	3.96470426026	1.54142725268	22.38	22.58
O	-0.250630051044	6.22636091103	6.58941422392	270.92	265.11
O	-0.752523504437	16.0284053659	10.4917435959	270.92	265.11
O	4.12201374206	13.3777211885	4.79802432264	270.92	265.11
O	4.62390719545	3.57567673361	0.895694950638	270.92	265.12
H	0.305649891878	6.85616408723	6.07169379812	24.41	24.35
H	-1.30880344736	16.6582085421	11.0094640217	24.41	24.35
H	3.56573379913	12.7479180123	5.31574474845	24.41	24.35
H	5.18018713837	2.94588036764	0.377974524835	24.41	24.35
H	-1.20518581172	6.38201550715	6.3927007566	23.93	24.19
H	0.202032256243	16.1840531518	10.6884570633	23.93	24.19
H	5.07656950274	13.2220734026	4.99473778997	23.93	24.19
H	3.66935143477	3.42002894771	0.698981483316	23.93	24.19
O	0.721652735963	6.40104328724	9.02826622543	239.99	244.24
O	-1.72480629144	16.2030877421	8.05289159442	239.99	244.24
O	3.14973095505	13.2030388123	2.35917232113	239.99	244.24
O	5.59618998246	3.4009943574	3.33454695215	239.99	244.24
H	0.327469865889	6.34643206015	8.09655878336	20.00	19.91
H	-1.33062342137	16.148476515	8.98459903649	20.00	19.91
H	3.54391382512	13.2576500394	3.29087976321	20.00	19.91
H	5.20200711238	3.45561239472	2.40283951007	20.00	19.91
H	1.53154561027	5.82877973664	9.00825777236	23.35	23.70
H	4.27553673648	15.6308241915	8.07289323726	23.35	23.70
H	2.33984489097	13.7753023629	2.37917396398	23.35	23.70