7
Lattice="13.38377 0.0 0.0 8.1952e-16 13.3838 0.0 8.1952e-16 8.1952e-16 13.3838" Properties=species:S:1:pos:R:3:forces:R:3
O 5.40450e-01 -9.74850e-01 -2.16580e-01 9.35349e-02 1.51308e-01 -1.28840e-01
O 2.92484e+00 -8.39252e-01 1.52397e-01 -5.06121e-02 -1.61069e-01 -1.42147e-01
H 1.83860e-01 -1.25804e+00 -1.07875e+00 1.00821e-01 1.26695e-01 2.98176e-01
H 1.74329e+00 -9.09278e-01 -1.00395e-01 -8.08007e-03 1.58266e-03 5.27487e-02
H 3.29707e+00 -1.59324e+00 6.47253e-01 -1.14962e-01 2.58668e-01 -2.00828e-01
H 3.53033e+00 -6.08138e-01 -5.76078e-01 -1.88367e-01 -1.07997e-01 2.60654e-01
H 4.23316e-02 -1.94860e-01 9.22810e-02 1.67651e-01 -2.69138e-01 -1.39757e-01
7
Lattice="13.38377 0.0 0.0 8.1952e-16 13.3838 0.0 8.1952e-16 8.1952e-16 13.3838" Properties=species:S:1:pos:R:3:forces:R:3
O 5.50889e-01 -9.77077e-01 -2.54838e-01 -2.72993e-01 -1.59038e+00 -2.21164e+00
O 2.88390e+00 -8.10047e-01 1.66863e-01 3.68361e-01 1.92358e+00 -2.59024e+00
H 1.46272e-01 -1.11239e+00 -1.16162e+00 8.68333e-01 -5.76774e-02 1.24711e+00
H 1.75244e+00 -9.73050e-01 -9.04507e-02 2.59547e-02 8.67558e-01 -6.18100e-01
H 3.06298e+00 -1.54260e+00 6.90202e-01 1.23870e+00 -2.35491e+00 1.87607e+00
H 3.59274e+00 -7.36965e-01 -5.53377e-01 -1.47581e+00 -1.86009e-01 1.25101e+00
H 4.70067e-02 -2.83626e-01 1.20531e-01 -7.52490e-01 1.39787e+00 1.04589e+00
7
Lattice="13.38377 0.0 0.0 8.1952e-16 13.3838 0.0 8.1952e-16 8.1952e-16 13.3838" Properties=species:S:1:pos:R:3:forces:R:3
O 5.64953e-01 -9.64362e-01 -2.43291e-01 6.31765e-01 3.54919e-01 3.38263e+00
O 2.91709e+00 -8.76565e-01 1.39797e-01 3.80724e-01 -1.15883e+00 3.35999e+00
H 2.22792e-01 -7.96698e-01 -1.10680e+00 -5.11261e-01 5.67843e-01 -9.83046e-01
H 1.78845e+00 -9.95704e-01 3.62041e-02 -9.87474e-02 1.06999e-01 -1.78463e+00
H 3.22672e+00 -1.40070e+00 9.54644e-01 -2.21787e-01 1.06628e+00 -1.72995e+00
H 3.59218e+00 -8.88643e-01 -5.37366e-01 1.60094e-01 -1.49955e-01 -6.42391e-01
H 2.52443e-01 -3.22791e-01 4.59149e-01 -3.40817e-01 -7.87254e-01 -1.60265e+00
7
Lattice="13.38377 0.0 0.0 8.1952e-16 13.3838 0.0 8.1952e-16 8.1952e-16 13.3838" Properties=species:S:1:pos:R:3:forces:R:3
O 5.02739e-01 -8.99287e-01 -1.79346e-01 1.02249e+00 -1.16293e+00 -3.34012e+00
O 2.97608e+00 -9.84730e-01 9.85533e-02 -3.87162e-01 1.16376e+00 -1.35309e+00
H 1.24950e-01 -9.02913e-01 -1.12296e+00 6.95488e-01 1.59363e-01 1.97732e+00
H 1.55924e+00 -8.28984e-01 -6.06789e-02 1.24928e-01 -4.18451e-01 1.62612e-01
H 3.52626e+00 -1.54100e+00 6.50121e-01 2.00968e-01 -1.92964e-01 1.07362e-01
H 3.51249e+00 -5.56858e-01 -6.11696e-01 -2.65321e-01 -6.31793e-01 1.00393e+00
H -4.66425e-02 -5.23077e-01 4.67707e-01 -1.39134e+00 1.08303e+00 1.44202e+00
7
Lattice="13.38377 0.0 0.0 8.1952e-16 13.3838 0.0 8.1952e-16 8.1952e-16 13.3838" Properties=species:S:1:pos:R:3:forces:R:3
O 4.97701e-01 -8.33144e-01 -1.60363e-01 1.19790e+00 2.15386e-01 1.20266e+00
O 2.90138e+00 -9.96697e-01 7.45065e-02 5.06915e-01 -3.66172e-01 8.89779e-01
H 3.02034e-01 -7.84954e-01 -1.09876e+00 -8.22892e-01 6.30235e-01 -1.73423e-01
H 1.75888e+00 -9.55761e-01 -8.94579e-02 -4.22303e-01 -1.00352e-01 6.79448e-01
H 3.33462e+00 -1.44851e+00 8.63252e-01 -7.38768e-01 6.20541e-01 -1.58557e+00
H 3.41490e+00 -1.03923e+00 -7.45802e-01 3.45911e-01 -2.02198e-01 3.30215e-01
H 2.21749e-01 -5.48272e-02 3.96322e-01 -6.67957e-02 -7.97459e-01 -1.34308e+00
7
Lattice="13.38377 0.0 0.0 8.1952e-16 13.3838 0.0 8.1952e-16 8.1952e-16 13.3838" Properties=species:S:1:pos:R:3:forces:R:3
O 4.93613e-01 -8.24727e-01 -6.00393e-02 2.80157e-01 -1.21220e+00 -1.12178e+00
O 2.96577e+00 -1.02404e+00 -3.02517e-02 4.25922e+00 -2.79309e+00 -1.34091e+00
H 1.08224e-01 -1.10742e+00 -9.41738e-01 3.91115e-02 9.46775e-01 1.19448e+00
H 1.51357e+00 -8.87755e-01 -1.49430e-01 1.01537e+00 -8.70900e-01 -2.04518e-02
H 3.20560e+00 -1.77174e+00 6.22227e-01 -7.49401e-01 1.69974e+00 -1.07945e+00
H 3.80945e+00 -1.21131e+00 -7.48001e-01 -3.68049e+00 1.13384e+00 2.55079e+00
H 4.23083e-01 9.85310e-02 1.76181e-01 -1.16395e+00 1.09585e+00 -1.82712e-01
7
Lattice="13.38377 0.0 0.0 8.1952e-16 13.3838 0.0 8.1952e-16 8.1952e-16 13.3838" Properties=species:S:1:pos:R:3:forces:R:3
O 6.07016e-01 -6.99835e-01 -3.89965e-02 1.75002e+00 4.66576e-01 4.77169e-01
O 2.90525e+00 -1.07025e+00 -4.68385e-02 1.85995e+00 1.67179e-01 -4.90637e+00
H 1.74308e-01 -1.42077e+00 -4.47404e-01 -1.39090e+00 -9.18854e-01 -6.50358e-01
H 1.80668e+00 -7.75569e-01 -1.18046e-01 -5.73009e-01 -1.09721e-01 4.76877e-01
H 3.38016e+00 -1.37588e+00 6.74864e-01 9.81602e-01 -8.62688e-01 2.85495e+00
H 3.51391e+00 -1.29032e+00 -8.56856e-01 -1.96607e+00 8.01440e-01 1.79954e+00
H 8.85947e-02 6.07545e-02 1.95172e-01 -6.61667e-01 4.56091e-01 -5.17629e-02
7
Lattice="13.38377 0.0 0.0 8.1952e-16 13.3838 0.0 8.1952e-16 8.1952e-16 13.3838" Properties=species:S:1:pos:R:3:forces:R:3
O 5.42324e-01 -6.23819e-01 -7.00807e-02 1.22904e+00 1.20749e+00 8.85477e-02
O 2.93208e+00 -1.19746e+00 -7.30759e-02 1.76959e-01 3.16594e+00 -4.40088e+00
H -9.87838e-02 -1.32174e+00 2.99983e-03 -2.79124e-01 -1.05426e+00 7.14737e-02
H 1.72158e+00 -8.03780e-01 5.29930e-02 -6.84595e-01 -4.43104e-01 -7.80946e-02
H 3.58694e+00 -1.62817e+00 3.85755e-01 1.66357e+00 -2.22192e+00 3.05339e+00
H 3.59040e+00 -7.80141e-01 -7.69174e-01 -2.60761e+00 -5.38966e-01 1.30389e+00
H 1.05610e-01 1.90523e-01 2.41430e-01 5.01690e-01 -1.15166e-01 -3.83238e-02
7
Lattice="13.38377 0.0 0.0 8.1952e-16 13.3838 0.0 8.1952e-16 8.1952e-16 13.3838" Properties=species:S:1:pos:R:3:forces:R:3
O 5.63256e-01 -6.89408e-01 2.68447e-02 -5.02113e-01 -8.83349e-01 1.34939e-01
O 2.92021e+00 -1.18099e+00 -1.36228e-01 1.48963e-01 1.09013e+00 -2.73727e+00
H -2.25604e-01 -1.21730e+00 3.57785e-01 1.43965e+00 1.10551e+00 -5.47550e-01
H 1.81939e+00 -9.53954e-01 -9.64879e-02 -1.82466e-01 -3.99015e-01 6.61233e-01
H 3.43135e+00 -1.07901e+00 6.42451e-01 5.45403e-01 -1.25887e-01 2.03370e+00
H 3.38538e+00 -5.50795e-01 -7.56808e-01 -7.06469e-01 -9.28350e-01 2.57912e-01
H 4.39275e-01 2.62034e-01 4.93524e-02 -7.42870e-01 1.40966e-01 1.96918e-01
7
Lattice="13.38377 0.0 0.0 8.1952e-16 13.3838 0.0 8.1952e-16 8.1952e-16 13.3838" Properties=species:S:1:pos:R:3:forces:R:3
O 5.50980e-01 -6.44150e-01 4.57492e-02 -8.34803e-01 1.31902e+00 4.51465e-01
O 2.89919e+00 -1.23494e+00 -2.06114e-01 -3.20936e+00 2.05925e-01 5.09096e-01
H -2.00049e-02 -1.44826e+00 1.75444e-01 1.11664e+00 7.92066e-01 -1.91696e-01
H 1.74423e+00 -5.96363e-01 -1.00494e-01 -4.73639e-01 -1.84681e+00 1.74115e-01
H 3.41953e+00 -1.13454e+00 5.62462e-01 1.12778e+00 9.46107e-02 1.73288e+00
H 3.43282e+00 -9.90661e-01 -9.19725e-01 1.44718e+00 6.51213e-01 -2.17565e+00
H 4.73633e-02 1.63106e-01 3.57566e-01 8.26304e-01 -1.21595e+00 -5.00201e-01
7
Lattice="13.38377 0.0 0.0 8.1952e-16 13.3838 0.0 8.1952e-16 8.1952e-16 13.3838" Properties=species:S:1:pos:R:3:forces:R:3
O 6.20736e-01 -6.88930e-01 1.53261e-01 -2.38105e+00 -3.05784e-01 7.46333e-01
O 2.89781e+00 -1.11220e+00 -2.17096e-01 3.01195e+00 2.55784e-01 -1.44578e+00
H 5.80220e-02 -1.37312e+00 6.29639e-01 1.16868e+00 9.95931e-01 -9.26900e-01
H 1.79267e+00 -8.84367e-01 -2.24599e-01 2.49084e-01 -1.91912e-02 1.61776e+00
H 3.62761e+00 -1.13481e+00 5.97223e-01 -2.77107e+00 4.07320e-01 -3.37852e+00
H 3.22553e+00 -9.07682e-01 -1.20520e+00 -1.98125e-02 -7.17588e-01 3.47440e+00
H 4.94277e-02 1.06560e-01 4.90153e-02 7.42104e-01 -6.16449e-01 -8.72718e-02
7
Lattice="13.38377 0.0 0.0 8.1952e-16 13.3838 0.0 8.1952e-16 8.1952e-16 13.3838" Properties=species:S:1:pos:R:3:forces:R:3
O 5.33288e-01 -7.24654e-01 1.13723e-01 5.88909e-02 2.25269e+00 6.65863e-01
O 2.95927e+00 -1.13326e+00 -3.17026e-01 -1.64978e+00 5.33681e-01 -1.47969e+00
H -2.14742e-01 -1.35089e+00 3.02110e-01 1.02125e+00 9.84039e-01 -3.51309e-02
H 1.85353e+00 -8.93099e-01 -3.21436e-02 1.71480e-01 -9.57705e-01 -3.09816e-01
H 3.54558e+00 -1.45148e+00 3.57757e-01 5.97556e-01 -4.74167e-01 6.88240e-01
H 3.09027e+00 -1.59884e+00 -1.18709e+00 -1.41311e-01 4.81266e-01 1.15670e+00
H 3.41140e-01 2.46886e-01 4.16060e-01 -5.80603e-02 -2.81987e+00 -6.86053e-01
7
Lattice="13.38377 0.0 0.0 8.1952e-16 13.3838 0.0 8.1952e-16 8.1952e-16 13.3838" Properties=species:S:1:pos:R:3:forces:R:3
O 5.67842e-01 -5.76216e-01 1.51527e-01 -2.46709e+00 1.98112e+00 1.17613e-01
O 2.87628e+00 -1.11413e+00 -2.24502e-01 -1.63602e+00 1.30010e+00 -6.48101e-01
H -5.64083e-02 -1.09976e+00 6.54257e-01 -1.77020e-01 -8.75870e-01 3.52894e-01
H 1.56257e+00 -8.39762e-01 1.78613e-01 1.31387e+00 5.45915e-02 -4.83064e-01
H 3.41700e+00 -1.51083e+00 4.03709e-01 1.80634e+00 -9.54864e-01 2.17886e+00
H 3.00705e+00 -1.65261e+00 -9.91271e-01 -8.04938e-02 -4.32486e-01 -1.18254e+00
H 2.27319e-01 3.64684e-01 2.57697e-01 1.24046e+00 -1.07258e+00 -3.35679e-01
7
Lattice="13.38377 0.0 0.0 8.1952e-16 13.3838 0.0 8.1952e-16 8.1952e-16 13.3838" Properties=species:S:1:pos:R:3:forces:R:3
O 5.86796e-01 -6.07707e-01 1.76574e-01 -2.26320e+00 -2.36576e+00 2.23972e-01
O 2.87550e+00 -1.20460e+00 -3.38193e-01 -5.18942e+00 6.50898e-01 -5.29064e+00
H -7.42415e-02 -1.27695e+00 5.81207e-01 1.79800e+00 1.13257e+00 -9.99890e-01
H 1.57176e+00 -8.49219e-01 -1.17054e-01 6.49352e-01 -5.36349e-01 2.95571e-02
H 3.36466e+00 -1.23402e+00 3.70327e-01 4.66978e+00 -3.96876e-01 5.92170e+00
H 3.34117e+00 -1.43726e+00 -1.13226e+00 4.08426e-01 -1.57488e-01 -5.02091e-01
H 4.28949e-01 2.34063e-01 5.57513e-01 -7.27988e-02 1.67300e+00 6.17285e-01
7
Lattice="13.38377 0.0 0.0 8.1952e-16 13.3838 0.0 8.1952e-16 8.1952e-16 13.3838" Properties=species:S:1:pos:R:3:forces:R:3
O 5.92139e-01 -5.36381e-01 1.01150e-01 -8.02849e-01 -3.33509e-01 1.96437e-01
O 2.85193e+00 -1.16904e+00 -2.57333e-01 3.64133e-01 -6.53817e-01 -4.58538e+00
H 4.00177e-02 -1.26353e+00 4.75742e-01 4.66763e-01 6.72817e-01 -2.99029e-01
H 1.71316e+00 -8.22499e-01 -1.05155e-01 -4.35010e-01 1.59895e-01 1.32066e+00
H 3.62609e+00 -1.62097e+00 7.60246e-02 1.18259e-01 -1.55951e-01 1.25562e+00
H 2.91678e+00 -1.43372e+00 -1.25987e+00 -2.64985e-01 8.98748e-01 2.36632e+00
H 2.59606e-01 3.26528e-01 4.38479e-01 5.53676e-01 -5.88176e-01 -2.54545e-01
7
Lattice="13.38377 0.0 0.0 8.1952e-16 13.3838 0.0 8.1952e-16 8.1952e-16 13.3838" Properties=species:S:1:pos:R:3:forces:R:3
O 5.30363e-01 -5.70364e-01 1.47849e-01 1.00923e+00 1.40982e+00 1.38747e+00
O 2.92920e+00 -1.23964e+00 -2.63362e-01 1.66635e+00 -8.92166e-01 1.67034e+00
H -8.91253e-02 -1.14939e+00 5.94556e-01 -6.90746e-01 -6.51206e-01 1.13680e-01
H 1.52983e+00 -1.11003e+00 5.96059e-02 -1.61979e-01 1.59092e+00 2.47821e-01
H 3.78637e+00 -1.57372e+00 2.38342e-01 -2.75874e+00 9.15420e-01 -1.29172e+00
H 3.06898e+00 -1.47127e+00 -1.18409e+00 1.40281e-01 -9.37215e-02 -4.02959e-01
H 4.78939e-01 3.08655e-01 7.26061e-01 7.95708e-01 -2.27902e+00 -1.72472e+00
7
Lattice="13.38377 0.0 0.0 8.1952e-16 13.3838 0.0 8.1952e-16 8.1952e-16 13.3838" Properties=species:S:1:pos:R:3:forces:R:3
O 6.01117e-01 -5.59073e-01 6.12828e-02 -1.82249e-01 5.95581e-01 2.44120e-01
O 2.88775e+00 -1.26303e+00 -2.76137e-01 1.04108e-01 1.02126e-01 -5.59674e-01
H -1.68866e-01 -1.03439e+00 3.90607e-01 -2.59223e-02 -4.69197e-01 -1.44331e-01
H 1.81872e+00 -1.05470e+00 -2.24487e-01 2.28387e-02 1.69222e-01 3.98871e-01
H 3.29351e+00 -1.65984e+00 5.14625e-01 5.33361e-02 -8.01615e-02 -4.90131e-01
H 3.32244e+00 -1.44734e+00 -1.14155e+00 -2.79953e-01 -7.93910e-02 8.91272e-01
H 5.34269e-01 3.09174e-01 4.99802e-01 3.07860e-01 -2.38188e-01 -3.40143e-01
7
Lattice="13.38377 0.0 0.0 8.1952e-16 13.3838 0.0 8.1952e-16 8.1952e-16 13.3838" Properties=species:S:1:pos:R:3:forces:R:3
O 5.18973e-01 -5.25392e-01 1.09052e-01 -2.59182e-01 -1.19396e+00 6.32774e-01
O 2.86829e+00 -1.26599e+00 -1.85208e-01 -2.38576e+00 1.04158e+00 1.03611e+00
H -1.26864e-01 -9.60271e-01 6.98372e-01 2.70412e-01 -7.08940e-01 -4.28301e-01
H 1.71889e+00 -1.00471e+00 7.02758e-02 7.49313e-01 4.14402e-01 -3.41690e-01
H 3.29851e+00 -1.77698e+00 5.35546e-01 2.28606e-01 -1.56268e-01 -1.51185e+00
H 2.94048e+00 -1.39990e+00 -1.15145e+00 8.29967e-01 -8.09368e-01 7.92957e-01
H 3.60079e-01 3.66058e-01 3.97761e-01 5.66666e-01 1.41262e+00 -1.79969e-01
7
Lattice="13.38377 0.0 0.0 8.1952e-16 13.3838 0.0 8.1952e-16 8.1952e-16 13.3838" Properties=species:S:1:pos:R:3:forces:R:3
O 6.41087e-01 -5.48068e-01 6.98535e-02 1.74813e+00 2.01565e-01 -2.60120e+00
O 2.93762e+00 -1.27436e+00 -2.44428e-01 -6.33371e-01 -5.11592e-01 1.26730e+00
H 3.05599e-01 -8.64233e-01 8.70357e-01 -1.20240e+00 -3.87491e-01 2.10878e+00
H 1.84973e+00 -8.44632e-01 -1.52547e-01 2.18506e-01 5.71486e-02 9.40626e-01
H 3.21311e+00 -1.79038e+00 5.99921e-01 -5.91533e-01 8.99438e-01 -2.13176e+00
H 2.73679e+00 -1.87141e+00 -9.85220e-01 8.48732e-01 -5.78148e-01 1.36255e-01
H 3.75484e-01 3.43091e-01 -1.59633e-01 -3.88111e-01 3.18969e-01 2.79984e-01
7
Lattice="13.38377 0.0 0.0 8.1952e-16 13.3838 0.0 8.1952e-16 8.1952e-16 13.3838" Properties=species:S:1:pos:R:3:forces:R:3
O 6.22942e-01 -4.91236e-01 1.75717e-01 -2.95357e+00 1.71257e+00 1.05728e-01
O 2.86673e+00 -1.27317e+00 -2.54566e-01 -1.64840e+00 3.49551e+00 -3.48003e+00
H -6.67463e-02 -8.06823e-01 8.83927e-01 2.12652e+00 4.30066e-01 -1.91760e+00
H 1.63862e+00 -9.22742e-01 -2.53923e-01 5.24242e-01 -2.45596e-01 1.07267e+00
H 3.05168e+00 -1.93293e+00 3.37740e-01 1.19243e+00 -2.92795e+00 2.05121e+00
H 3.37090e+00 -1.28580e+00 -1.10240e+00 -3.47427e-01 -4.29020e-01 1.08259e+00
H 2.07156e-01 3.26776e-01 -2.92854e-01 1.10610e+00 -2.03562e+00 1.08535e+00
7
Lattice="13.38377 0.0 0.0 8.1952e-16 13.3838 0.0 8.1952e-16 8.1952e-16 13.3838" Properties=species:S:1:pos:R:3:forces:R:3
O 5.86890e-01 -5.52356e-01 1.13460e-01 2.20099e+00 4.41351e-01 -2.32451e+00
O 2.86570e+00 -1.30283e+00 -1.92890e-01 -4.67962e-01 1.31467e+00 -4.63897e+00
H 9.99123e-02 -8.01099e-01 8.55531e-01 -2.01997e+00 9.26894e-02 2.13919e+00
H 1.57474e+00 -1.08672e+00 1.66540e-01 -1.28755e-02 1.25248e+00 -1.15896e+00
H 3.50107e+00 -1.83648e+00 2.09320e-01 1.65120e+00 -1.56910e+00 1.47366e+00
H 3.17540e+00 -1.29814e+00 -1.22164e+00 -1.37172e+00 4.73462e-02 3.52271e+00
H 5.58613e-01 4.07741e-01 -1.88991e-01 2.03811e-02 -1.57949e+00 9.86920e-01
7
Lattice="13.38377 0.0 0.0 8.1952e-16 13.3838 0.0 8.1952e-16 8.1952e-16 13.3838" Properties=species:S:1:pos:R:3:forces:R:3
O 5.49937e-01 -5.46202e-01 1.00218e-01 1.98227e+00 2.15962e+00 4.22170e-01
O 2.88224e+00 -1.23770e+00 -2.37988e-01 2.01425e+00 -2.28070e+00 4.57506e+00
H 3.68945e-02 -8.97755e-01 9.02699e-01 8.61989e-01 1.57189e+00 -1.21768e+00
H 1.57142e+00 -9.52637e-01 8.84964e-02 -7.67990e-01 -3.46198e-01 -4.48015e-01
H 3.52758e+00 -1.96293e+00 1.91839e-01 -2.32724e+00 2.42813e+00 -3.27830e-02
H 3.17260e+00 -1.47130e+00 -1.06410e+00 3.11312e-01 -1.00998e-01 -4.36658e+00
H 8.53118e-01 5.04573e-01 1.93268e-02 -2.07452e+00 -3.43175e+00 1.06781e+00
7
Lattice="13.38377 0.0 0.0 8.1952e-16 13.3838 0.0 8.1952e-16 8.1952e-16 13.3838" Properties=species:S:1:pos:R:3:forces:R:3
O 6.17911e-01 -4.85709e-01 1.38567e-01 2.08909e+00 1.33420e+00 -2.15495e+00
O 2.88099e+00 -1.31781e+00 -2.95790e-01 1.86006e+00 -3.18463e+00 -1.61618e+00
H -1.17406e-02 -9.05187e-01 6.56638e-01 -1.99482e+00 -1.19149e+00 1.74209e+00
H 1.57686e+00 -8.74566e-01 -8.17822e-02 6.44896e-01 -6.97614e-01 1.50027e-01
H 3.27462e+00 -1.97155e+00 4.17920e-01 -1.05404e+00 1.80948e+00 -2.13423e+00
H 3.16835e+00 -1.74033e+00 -1.26489e+00 -1.12170e+00 1.55149e+00 3.78414e+00
H 5.44998e-01 4.61198e-01 2.22381e-03 -4.23357e-01 3.78569e-01 2.29112e-01
7
Lattice="13.38377 0.0 0.0 8.1952e-16 13.3838 0.0 8.1952e-16 8.1952e-16 13.3838" Properties=species:S:1:pos:R:3:forces:R:3
O 6.35568e-01 -3.67998e-01 1.19267e-01 3.73125e+00 7.74643e+00 -3.13131e+00
O 2.80913e+00 -1.38698e+00 -2.60699e-01 3.63300e-02 -3.30297e-02 -5.10777e-01
H 1.77022e-01 -9.88562e-01 5.10182e-01 -4.58637e+00 -4.78692e+00 3.98931e+00
H 1.55642e+00 -7.33118e-01 -4.27654e-02 1.20455e+00 -3.98613e-01 5.19960e-02
H 3.50964e+00 -1.90722e+00 1.11014e-01 6.74311e-01 -6.46136e-02 1.51618e+00
H 2.81721e+00 -1.81186e+00 -1.10698e+00 -4.76410e-01 -4.52920e-04 -1.41699e+00
H 6.80135e-01 5.90765e-01 5.03688e-01 -5.83627e-01 -2.46293e+00 -4.98477e-01
7
Lattice="13.38377 0.0 0.0 8.1952e-16 13.3838 0.0 8.1952e-16 8.1952e-16 13.3838" Properties=species:S:1:pos:R:3:forces:R:3
O 6.77416e-01 -2.44216e-01 1.32464e-01 -6.08161e-01 -2.94084e+00 -1.10592e+00
O 2.76788e+00 -1.44341e+00 -2.62623e-01 1.09180e+00 1.36793e+00 5.62736e+00
H -1.58426e-01 -7.56670e-01 3.41269e-01 1.33382e+00 8.95735e-01 -2.30819e-01
H 1.73712e+00 -8.97670e-01 -2.77728e-02 -4.29116e-01 -5.92577e-02 -1.64202e-01
H 3.25043e+00 -1.92601e+00 5.16333e-01 -1.35868e+00 1.77489e+00 -1.24903e+00
H 2.91850e+00 -2.06650e+00 -8.90433e-01 -2.27161e-02 -2.72426e+00 -4.11773e+00
H 7.36273e-01 5.16006e-01 6.66476e-01 -6.94981e-03 1.68594e+00 1.24026e+00
7
Lattice="13.38377 0.0 0.0 8.1952e-16 13.3838 0.0 8.1952e-16 8.1952e-16 13.3838" Properties=species:S:1:pos:R:3:forces:R:3
O 7.47303e-01 -2.52871e-01 1.05579e-01 5.21187e-01 1.42670e+00 4.91333e-01
O 2.73766e+00 -1.56942e+00 -2.84218e-01 -1.08408e+00 -1.20428e-01 -5.41225e-01
H -1.14740e-01 -5.58862e-01 4.36672e-01 3.06203e-01 2.02233e-01 1.35879e-02
H 1.67899e+00 -1.01325e+00 -1.05983e-01 3.15220e-01 3.38354e-01 2.39872e-01
H 3.07057e+00 -1.89847e+00 5.48248e-01 4.92483e-01 -8.16392e-02 8.51547e-01
H 2.58773e+00 -2.37859e+00 -8.01120e-01 1.19963e-01 8.92953e-02 -3.42880e-01
H 9.92838e-01 6.53035e-01 4.92249e-01 -6.70953e-01 -1.85446e+00 -7.12318e-01
7
Lattice="13.38377 0.0 0.0 8.1952e-16 13.3838 0.0 8.1952e-16 8.1952e-16 13.3838" Properties=species:S:1:pos:R:3:forces:R:3
O 7.81646e-01 -1.91517e-01 2.32136e-01 3.77527e+00 3.37518e+00 -1.42247e+00
O 2.69670e+00 -1.54368e+00 -3.27123e-01 -2.94402e-01 -1.16653e+00 -2.02376e+00
H 3.54267e-02 -5.57408e-01 6.12010e-01 -2.48790e+00 -1.28801e+00 1.60819e+00
H 1.68185e+00 -7.52395e-01 -1.77833e-02 -1.69124e-01 -9.01448e-01 4.30240e-01
H 3.43188e+00 -1.94125e+00 1.75228e-01 -4.70987e-01 2.03173e-01 -2.09919e-01
H 2.51553e+00 -2.10088e+00 -1.16118e+00 6.77354e-01 1.11383e+00 1.91160e+00
H 1.06440e+00 7.07796e-01 5.80044e-01 -1.03025e+00 -1.33622e+00 -2.93779e-01
7
Lattice="13.38377 0.0 0.0 8.1952e-16 13.3838 0.0 8.1952e-16 8.1952e-16 13.3838" Properties=species:S:1:pos:R:3:forces:R:3
O 7.85688e-01 -1.36046e-01 1.72862e-01 -6.81514e-01 -3.18163e+00 -2.18424e+00
O 2.68533e+00 -1.67225e+00 -3.36036e-01 -3.11379e+00 7.53293e-02 -4.91974e+00
H -9.94095e-02 -6.60280e-01 7.53098e-02 1.94977e+00 2.02477e+00 1.06192e+00
H 1.72581e+00 -9.85599e-01 -7.94844e-02 2.15761e-01 3.92710e-01 1.71619e-01
H 3.17839e+00 -1.98995e+00 3.59184e-01 1.89639e+00 -1.49535e+00 2.62857e+00
H 2.57461e+00 -2.37483e+00 -1.10520e+00 4.41711e-01 1.95005e+00 2.40848e+00
H 9.38968e-01 4.38089e-01 9.17118e-01 -7.08445e-01 2.34152e-01 8.33389e-01
7
Lattice="13.38377 0.0 0.0 8.1952e-16 13.3838 0.0 8.1952e-16 8.1952e-16 13.3838" Properties=species:S:1:pos:R:3:forces:R:3
O 7.99119e-01 -1.29909e-01 2.10434e-01 1.34687e+00 -2.27580e+00 -2.40231e-01
O 2.65673e+00 -1.64878e+00 -4.13951e-01 1.06809e+00 5.82872e-01 2.99803e+00
H 2.13365e-01 -7.05333e-01 7.18449e-01 -8.83273e-01 1.73443e-01 2.44654e-01
H 1.66453e+00 -9.11959e-01 6.28671e-02 -3.67202e-01 9.53364e-01 -1.19477e+00
H 3.41816e+00 -1.86333e+00 1.84860e-01 -1.01617e+00 4.49906e-01 -4.05751e-01
H 2.85894e+00 -2.14340e+00 -1.17777e+00 -3.03521e-01 -8.05314e-01 -1.96259e+00
H 1.14638e+00 5.13349e-01 8.24385e-01 1.55204e-01 9.21604e-01 5.60754e-01
7
Lattice="13.38377 0.0 0.0 8.1952e-16 13.3838 0.0 8.1952e-16 8.1952e-16 13.3838" Properties=species:S:1:pos:R:3:forces:R:3
O 7.79045e-01 -1.19873e-01 2.07448e-01 -2.29813e+00 -2.97640e+00 -1.15358e+00
O 2.66505e+00 -1.61014e+00 -4.00658e-01 -9.17228e-01 -1.52144e+00 -1.64443e+00
H -1.80880e-01 -4.44302e-01 3.60557e-01 2.20232e+00 2.23947e-01 -5.31217e-01
H 1.62593e+00 -8.73464e-01 7.58638e-02 -3.42402e-01 1.45357e-01 -5.23277e-01
H 3.18687e+00 -1.98488e+00 2.87265e-01 1.03074e+00 -1.07669e-01 1.47389e+00
H 2.62084e+00 -2.43542e+00 -1.00461e+00 -5.31730e-01 2.11374e+00 8.11635e-01
H 8.62681e-01 6.16221e-01 7.60019e-01 8.56520e-01 2.12246e+00 1.56704e+00
7
Lattice="13.38377 0.0 0.0 8.1952e-16 13.3838 0.0 8.1952e-16 8.1952e-16 13.3838" Properties=species:S:1:pos:R:3:forces:R:3
O 9.05786e-01 -1.96562e-01 2.66414e-01 -1.71932e+00 -3.48251e+00 2.36343e+00
O 2.63166e+00 -1.65489e+00 -3.90664e-01 -4.32304e-01 1.85383e+00 -9.29788e-01
H -1.08721e-02 -4.15451e-01 6.41725e-01 1.95032e+00 6.85228e-01 -1.01426e+00
H 1.78958e+00 -9.09465e-01 -6.44044e-02 -2.01138e-01 -8.01659e-01 2.57801e-01
H 2.90868e+00 -2.23692e+00 2.94302e-01 4.79430e-01 -1.33461e+00 6.37412e-01
H 2.42950e+00 -2.04173e+00 -1.24965e+00 2.81470e-01 -6.80230e-01 8.81522e-02
H 1.01422e+00 6.07484e-01 -1.31330e-01 -3.58578e-01 3.75973e+00 -1.40281e+00
7
Lattice="13.38377 0.0 0.0 8.1952e-16 13.3838 0.0 8.1952e-16 8.1952e-16 13.3838" Properties=species:S:1:pos:R:3:forces:R:3
O 8.93132e-01 -1.31835e-01 3.22317e-01 5.66836e-01 4.16877e+00 -1.63912e+00
O 2.58347e+00 -1.66075e+00 -4.11816e-01 7.23677e-01 -2.06648e+00 -5.94835e-02
H 1.80943e-02 -1.60408e-01 7.03636e-01 -5.30706e-01 -6.40168e-01 2.47394e-01
H 1.60388e+00 -8.57983e-01 3.65781e-02 2.64925e-01 -1.09234e+00 -4.84165e-01
H 2.75263e+00 -2.48262e+00 1.80886e-01 -2.26161e-01 1.86040e+00 -1.78677e+00
H 2.79982e+00 -1.86889e+00 -1.38084e+00 -4.94556e-01 1.79483e-01 2.12391e+00
H 9.97917e-01 7.47364e-01 -2.31859e-01 -3.03976e-01 -2.40964e+00 1.59826e+00
7
Lattice="13.38377 0.0 0.0 8.1952e-16 13.3838 0.0 8.1952e-16 8.1952e-16 13.3838" Properties=species:S:1:pos:R:3:forces:R:3
O 8.89722e-01 -2.01305e-02 3.46953e-01 -8.03753e-01 1.19933e-01 -8.79386e-01
O 2.59088e+00 -1.71329e+00 -3.66326e-01 1.64058e-01 -2.19738e-01 6.32911e-01
H 1.91604e-01 -6.13907e-01 7.12741e-01 5.68414e-01 4.31595e-01 -1.68996e-01
H 1.80841e+00 -7.49887e-01 -9.23379e-02 -7.57333e-01 -2.01143e-02 7.77173e-01
H 3.09830e+00 -2.49448e+00 -2.01846e-02 -8.49818e-01 1.17407e+00 5.31179e-01
H 2.73453e+00 -1.77232e+00 -1.29449e+00 1.16190e-01 1.39405e-01 -1.58615e+00
H 3.72235e-01 7.23067e-01 -1.31712e-01 1.56222e+00 -1.62516e+00 6.93152e-01
7
Lattice="13.38377 0.0 0.0 8.1952e-16 13.3838 0.0 8.1952e-16 8.1952e-16 13.3838" Properties=species:S:1:pos:R:3:forces:R:3
O 9.63615e-01 2.42443e-02 2.81681e-01 -1.06759e-01 1.11012e-01 -2.45191e+00
O 2.54730e+00 -1.79412e+00 -3.77344e-01 8.56822e-01 -8.31037e-01 -2.21061e+00
H 1.15577e-01 -3.68474e-01 5.92046e-01 3.67173e-01 3.03470e-01 -1.83547e-01
H 1.59157e+00 -7.81941e-01 -2.13104e-01 -6.78996e-02 3.25928e-01 9.85981e-01
H 2.74147e+00 -2.35900e+00 3.79866e-01 3.27332e-02 -1.29507e-02 4.36769e-02
H 2.99663e+00 -2.23691e+00 -1.19901e+00 -1.37693e+00 1.33327e+00 2.17451e+00
H 7.42858e-01 7.10197e-01 -4.47825e-01 2.94870e-01 -1.22969e+00 1.64189e+00
7
Lattice="13.38377 0.0 0.0 8.1952e-16 13.3838 0.0 8.1952e-16 8.1952e-16 13.3838" Properties=species:S:1:pos:R:3:forces:R:3
O 8.74865e-01 -1.08745e-01 3.30351e-01 -2.97524e-01 -2.71786e+00 1.69472e+00
O 2.58463e+00 -1.71703e+00 -3.67653e-01 -2.92124e+00 1.33500e+00 -4.89921e-01
H 6.84354e-02 -3.39189e-01 8.79611e-01 1.39107e+00 2.98567e-01 -9.69723e-01
H 1.71657e+00 -7.25416e-01 4.54209e-02 -5.54326e-01 -9.76626e-01 4.31424e-02
H 3.30496e+00 -1.89246e+00 1.58468e-01 2.77106e+00 -6.96970e-01 1.97387e+00
H 2.77450e+00 -2.01688e+00 -1.24089e+00 1.05778e-01 -2.47244e-01 -1.16745e+00
H 9.12497e-01 7.10611e-01 -7.41596e-02 -4.94821e-01 3.00522e+00 -1.08454e+00
7
Lattice="13.38377 0.0 0.0 8.1952e-16 13.3838 0.0 8.1952e-16 8.1952e-16 13.3838" Properties=species:S:1:pos:R:3:forces:R:3
O 9.10057e-01 -6.77395e-02 1.92444e-01 1.68752e+00 -1.40523e+00 -5.85598e-01
O 2.52694e+00 -1.84766e+00 -3.44408e-01 -3.50585e-01 6.55198e-01 -7.53489e-01
H 1.60963e-01 -7.42283e-02 7.37083e-01 -1.73796e+00 -9.25169e-01 1.66636e+00
H 1.97343e+00 -9.44784e-01 -7.52658e-02 -7.42678e-01 -8.23821e-01 -6.57963e-01
H 3.35375e+00 -1.77131e+00 1.24713e-01 1.06042e+00 -3.42981e-01 4.16146e-01
H 2.72483e+00 -2.00998e+00 -1.31156e+00 -4.45892e-01 4.46896e-01 1.10797e+00
H 8.93014e-01 8.05845e-01 -1.04905e-01 5.29196e-01 2.39510e+00 -1.19347e+00
7
Lattice="13.38377 0.0 0.0 8.1952e-16 13.3838 0.0 8.1952e-16 8.1952e-16 13.3838" Properties=species:S:1:pos:R:3:forces:R:3
O 7.84377e-01 -1.22741e-01 3.43087e-01 2.68340e-01 1.53623e+00 4.68804e-01
O 2.62338e+00 -1.70673e+00 -4.54739e-01 2.54096e+00 3.09424e+00 5.85243e+00
H 5.64832e-01 -5.56415e-01 1.21907e+00 1.63689e-01 9.23237e-01 -1.02587e+00
H 1.70179e+00 -5.44451e-01 -3.08142e-02 -6.20581e-01 -3.15133e-01 6.71061e-02
H 3.62163e+00 -1.55120e+00 -1.66926e-01 -3.03122e+00 -8.72777e-01 -1.64850e+00
H 2.48310e+00 -2.00617e+00 -1.29194e+00 2.05607e-01 -1.45441e+00 -3.99515e+00
H 6.64446e-01 9.17225e-01 3.30360e-01 4.73248e-01 -2.91142e+00 2.81166e-01
7
Lattice="13.38377 0.0 0.0 8.1952e-16 13.3838 0.0 8.1952e-16 8.1952e-16 13.3838" Properties=species:S:1:pos:R:3:forces:R:3
O 8.58076e-01 -8.66356e-02 2.87496e-01 2.02918e-01 -4.15891e-01 -7.24461e-01
O 2.48773e+00 -1.72929e+00 -3.64189e-01 4.21020e-01 -1.77200e+00 -2.52492e+00
H 6.06537e-01 -3.04610e-01 1.17527e+00 -6.32770e-01 1.28641e-01 1.16219e+00
H 1.61606e+00 -9.20384e-01 -1.43575e-02 6.84577e-01 7.00519e-01 -4.14394e-01
H 3.44368e+00 -1.73937e+00 -5.58532e-02 -1.63150e+00 -2.22735e-02 -7.59964e-01
H 2.35069e+00 -2.22360e+00 -1.30189e+00 8.08707e-01 1.67184e+00 3.29465e+00
H 1.08523e+00 8.57984e-01 2.32153e-01 1.47026e-01 -2.90918e-01 -3.30914e-02
7
Lattice="13.38377 0.0 0.0 8.1952e-16 13.3838 0.0 8.1952e-16 8.1952e-16 13.3838" Properties=species:S:1:pos:R:3:forces:R:3
O 8.26496e-01 -1.19220e-01 2.81329e-01 -3.98839e+00 -8.34576e+00 1.16708e+00
O 2.64507e+00 -1.73747e+00 -4.17478e-01 1.47942e+00 1.04806e+00 3.95182e-01
H 2.90052e-01 -2.73978e-01 1.15177e+00 7.86986e-01 -8.98561e-03 -2.15735e+00
H 1.64311e+00 -9.74917e-01 1.82174e-01 -3.38479e-01 1.03516e+00 -1.02176e+00
H 3.55418e+00 -1.40870e+00 -6.76696e-01 -7.53483e-01 5.70597e-02 1.60466e+00
H 2.44112e+00 -1.94065e+00 -1.31226e+00 -1.55940e+00 -9.13319e-01 -1.39790e+00
H 1.27797e+00 5.82613e-01 4.88595e-01 4.37336e+00 7.12784e+00 1.41012e+00
7
Lattice="13.38377 0.0 0.0 8.1952e-16 13.3838 0.0 8.1952e-16 8.1952e-16 13.3838" Properties=species:S:1:pos:R:3:forces:R:3
O 9.25628e-01 -7.80053e-02 3.53720e-01 2.23326e+00 3.32350e+00 -3.28079e+00
O 2.51966e+00 -1.73352e+00 -4.91521e-01 1.67381e+00 -1.34001e-01 -2.43176e+00
H 3.08346e-01 -2.25260e-01 9.52912e-01 -4.49905e+00 -2.08504e+00 4.81600e+00
H 1.60467e+00 -8.01530e-01 9.53633e-02 1.24929e+00 -6.77861e-01 -1.27508e+00
H 3.45773e+00 -1.35067e+00 -6.80291e-01 -2.27040e+00 -9.92989e-01 5.52684e-01
H 2.29041e+00 -2.25009e+00 -1.35746e+00 4.39054e-01 1.33833e+00 2.28116e+00
H 7.82719e-01 8.69508e-01 1.23167e-01 1.17395e+00 -7.71954e-01 -6.62150e-01
7
Lattice="13.38377 0.0 0.0 8.1952e-16 13.3838 0.0 8.1952e-16 8.1952e-16 13.3838" Properties=species:S:1:pos:R:3:forces:R:3
O 9.67078e-01 -8.97066e-02 5.02543e-01 2.63324e+00 -1.61610e+00 1.85575e-01
O 2.43656e+00 -1.69061e+00 -5.79824e-01 3.88995e+00 4.57556e+00 -4.64430e-02
H 4.24697e-01 -5.81347e-01 1.15085e+00 -4.89932e-01 1.21303e+00 -9.31561e-01
H 1.90023e+00 -8.37904e-01 -1.58726e-01 -1.50897e+00 -7.98098e-01 8.67192e-01
H 3.42957e+00 -1.49997e+00 -6.00085e-01 -1.76762e+00 -9.22618e-01 -9.77020e-02
H 2.19372e+00 -2.56279e+00 -6.81283e-01 -1.03527e+00 -3.13704e+00 -2.01473e-01
H 7.21043e-01 5.85846e-01 -1.12547e-01 -1.72149e+00 6.85215e-01 2.24421e-01
7
Lattice="13.38377 0.0 0.0 8.1952e-16 13.3838 0.0 8.1952e-16 8.1952e-16 13.3838" Properties=species:S:1:pos:R:3:forces:R:3
O 1.09756e+00 -4.94390e-02 5.37883e-01 2.07593e+00 -2.63883e+00 3.37621e+00
O 2.39654e+00 -1.73622e+00 -6.99213e-01 1.89042e+00 -2.02775e+00 1.84585e+00
H 5.08208e-01 -5.55521e-01 1.19265e+00 7.19645e-01 1.40085e+00 -1.70848e+00
H 1.94824e+00 -8.84216e-01 5.48637e-02 -1.44080e+00 -4.94636e-01 -9.41332e-02
H 3.37321e+00 -1.59471e+00 -5.01215e-01 -1.16001e+00 -4.74757e-01 -8.23908e-01
H 2.25574e+00 -2.77322e+00 -4.83145e-01 1.34123e-01 3.33994e+00 -5.21647e-01
H 7.02464e-01 1.86325e-01 -2.58726e-01 -2.21935e+00 8.95185e-01 -2.07382e+00
7
Lattice="13.38377 0.0 0.0 8.1952e-16 13.3838 0.0 8.1952e-16 8.1952e-16 13.3838" Properties=species:S:1:pos:R:3:forces:R:3
O 1.07999e+00 -9.80925e-02 4.79726e-01 3.36518e-01 1.87583e-01 4.67553e+00
O 2.35006e+00 -1.76760e+00 -6.57179e-01 -3.37117e+00 1.62703e+00 7.29016e-01
H 9.88287e-01 3.09752e-01 1.45720e+00 4.73177e-01 -1.58288e+00 -3.16808e+00
H 1.80326e+00 -1.05473e+00 9.23007e-02 -1.47495e-01 2.90594e-01 -7.84663e-01
H 3.25241e+00 -1.76540e+00 -6.95117e-01 4.12471e+00 2.02802e-01 -4.98052e-02
H 2.04185e+00 -2.63910e+00 -8.03214e-01 -8.50107e-01 -1.66378e+00 -1.25363e-01
H 6.85786e-01 5.26622e-01 -9.67785e-02 -5.65555e-01 9.38627e-01 -1.27657e+00
7
Lattice="13.38377 0.0 0.0 8.1952e-16 13.3838 0.0 8.1952e-16 8.1952e-16 13.3838" Properties=species:S:1:pos:R:3:forces:R:3
O 1.10789e+00 -4.33026e-02 5.65635e-01 -7.16156e-01 -1.47802e+00 -3.68014e+00
O 2.31532e+00 -1.73257e+00 -7.09727e-01 -9.54659e-01 -1.59724e+00 4.54452e-01
H 1.54366e+00 8.86783e-02 1.35965e+00 1.22223e+00 8.91949e-01 2.64312e+00
H 1.76720e+00 -7.54311e-01 -2.84317e-01 -6.12704e-01 -1.05355e+00 1.24023e+00
H 3.24086e+00 -1.60385e+00 -6.31232e-01 1.97684e+00 6.06618e-01 -3.08203e-01
H 2.24458e+00 -2.68610e+00 -3.42604e-01 -8.25807e-01 2.13291e+00 -5.59192e-01
H 6.15556e-01 7.12879e-01 2.42821e-01 -8.98259e-02 4.97342e-01 2.09697e-01
7
Lattice="13.38377 0.0 0.0 8.1952e-16 13.3838 0.0 8.1952e-16 8.1952e-16 13.3838" Properties=species:S:1:pos:R:3:forces:R:3
O 1.16160e+00 1.18859e-03 6.08531e-01 -7.00593e-03 3.58624e+00 -9.86520e-01
O 2.27984e+00 -1.86004e+00 -7.46954e-01 8.93010e-01 2.88045e+00 6.22242e-01
H 1.74579e+00 5.26113e-01 1.28504e+00 -1.43401e+00 -1.41826e+00 -1.70313e+00
H 1.75167e+00 -9.85920e-01 -1.05247e-01 1.01732e-01 -3.82640e-01 -2.91427e-01
H 3.22550e+00 -1.46849e+00 -9.03777e-01 -2.04355e+00 -1.80123e+00 4.26570e-01
H 2.23406e+00 -2.71765e+00 -2.80281e-01 6.40443e-01 2.24639e-01 -1.65833e-01
H 6.68819e-01 7.93537e-01 2.96299e-02 1.84942e+00 -3.08919e+00 2.09811e+00
7
Lattice="13.38377 0.0 0.0 8.1952e-16 13.3838 0.0 8.1952e-16 8.1952e-16 13.3838" Properties=species:S:1:pos:R:3:forces:R:3