10
Lattice="30.0 0.0 0.0 0.0 30.0 0.0 0.0 0.0 30.0" Properties=species:S:1:pos:R:3:resid:I:1:force:R:3 energy=-0.00961079 ediff_cc=-0.00127562 cutoff=-1.0 nneightol=1.2 comment="Sample of 100 methane dimers with quantum chemistry energies and forces, see https://www.repository.cam.ac.uk/handle/1810/279000" pbc="T T T"
C      -1.95168343       0.86984925      -0.74594114       40      -0.00253481      -0.00190226      -0.00088112 
H      -2.18499691       1.41520290      -1.65816840       40      -0.00011876       0.00211501      -0.00109405 
H      -1.03586183       1.26510377      -0.31121949       40       0.00519011      -0.00117329       0.00055291 
H      -1.81727564      -0.18466950      -0.97806305       40       0.00555129      -0.00237711       0.00243238 
H      -2.76859934       0.98371079      -0.03629403       40      -0.00110991       0.00059083       0.00139919 
C       1.95168343      -0.86984925       0.74594114       65       0.00090621      -0.00192560      -0.00067159 
H       1.83563964      -1.27949583      -0.25538215       65      -0.00296888       0.00202817      -0.00306856 
H       1.43516230       0.08576393       0.80898188       65      -0.00480336       0.00192615      -0.00060406 
H       3.00902304      -0.72531570       0.95839469       65       0.00232057      -0.00002135       0.00059875 
H       1.52698229      -1.56027585       1.47177751       65      -0.00243252       0.00073943       0.00133615 
10
Lattice="25.68104 0.0 0.0 0.0 25.68101 0.0 0.0 0.0 25.68104" Properties=species:S:1:pos:R:3:resid:I:1:force:R:3 energy=-0.01230964 ediff_cc=-0.00165667 cutoff=-1.0 nneightol=1.2 pbc="T T T"
C       1.31254511       1.74620596      -0.32347838       24       0.00114322      -0.00162949       0.00129523 
H       0.56489300       1.12390372       0.16407616       24      -0.00969475      -0.00343856      -0.00036615 
H       1.32651560       1.52843099      -1.38947267       24      -0.00171402      -0.00228509      -0.00178467 
H       2.29191726       1.53723958       0.10213350       24       0.00392945       0.00101650       0.00086579 
H       1.06690597       2.79517249      -0.17075323       24       0.00061615       0.00205223       0.00063868 
C      -1.31254511      -1.74620596       0.32347838       77       0.00013233       0.00221540      -0.00121435 
H      -1.49428983      -2.73988128       0.72787772       77      -0.00052812      -0.00083345       0.00225115 
H      -1.55707998      -1.73583083      -0.73676336       77       0.00209209       0.00263967      -0.00230795 
H      -0.26427074      -1.48662231       0.45648049       77       0.00799231      -0.00305659      -0.00196814 
H      -1.93456558      -1.02248941       0.84626731       77      -0.00396864       0.00331940       0.00259044 
10
Lattice="24.42866 0.0 0.0 0.0 24.42874 0.0 0.0 0.0 24.428666" Properties=species:S:1:pos:R:3:resid:I:1:force:R:3 energy=0.01343029 ediff_cc=-0.00551333 cutoff=-1.0 nneightol=1.2 pbc="T T T"
C       0.66386105       0.75697337       1.56707450       40      -0.02066089       0.04755001       0.01681259 
H       0.02011700       0.87261902       0.69748727       40       0.01474692       0.04744054       0.09020330 
H       1.68778833       1.00631752       1.29608730       40       0.01178025       0.00422841      -0.00289951 
H       0.62145290      -0.27304003       1.91535399       40      -0.00816267      -0.01175527      -0.00264164 
H       0.32601268       1.42185038       2.35918303       40       0.01226543       0.00175859       0.01530183 
C      -0.66386105      -0.75697337      -1.56707450       89       0.03973898      -0.02758065      -0.01347937 
H      -0.94454635       0.16005710      -2.08112691       89      -0.00249070       0.01096661      -0.00834473 
H      -0.26711518      -1.46965743      -2.28730485       89      -0.01305793      -0.00319428      -0.01694424 
H      -1.53911551      -1.18239987      -1.08030890       89      -0.00536220      -0.00252578       0.01021596 
H       0.09533285      -0.53596656      -0.81958174       89      -0.02879718      -0.06688823      -0.08822422 
10
Lattice="30.0 0.0 0.0 0.0 30.0 0.0 0.0 0.0 30.0" Properties=species:S:1:pos:R:3:resid:I:1:force:R:3 energy=-0.00263081 ediff_cc=-0.00567134 cutoff=-1.0 nneightol=1.2 pbc="T T T"
C       1.15458858       1.30202924      -0.17693421      109       0.02304655       0.04237568      -0.03024288 
H       0.10896660       1.33525496      -0.47588892      109       0.02605708       0.00242895       0.01073738 
H       1.55419703       0.30769121      -0.36513641      109      -0.00581489       0.01360643      -0.01023472 
H       1.23599554       1.53085755       0.88364321      109      -0.00222757       0.00070431       0.01097614 
H       1.71919515       2.03430554      -0.75032904      109       0.01489079       0.01388380       0.00778925 
C      -1.15458858      -1.30202924       0.17693421      189      -0.01595521      -0.05283749      -0.00442222 
H      -1.16263163      -0.76057597      -0.76677489      189       0.00427881      -0.02179541       0.00850502 
H      -1.49211395      -2.32394231       0.01167912      189      -0.01858169      -0.00867774       0.00665435 
H      -1.82018295      -0.80994173       0.88310358      189      -0.00484540       0.00653895       0.00759689 
H      -0.14381125      -1.31432764       0.57942069      189      -0.02084844       0.00377250      -0.00735918 
10
Lattice="23.599011 0.0 0.0 0.0 23.598987 0.0 0.0 0.0 23.599016" Properties=species:S:1:pos:R:3:resid:I:1:force:R:3 energy=-0.01540492 ediff_cc=-0.00227126 cutoff=-1.0 nneightol=1.2 pbc="T T T"
C       0.04010652       0.69218189      -1.88662333      105       0.00022358       0.00295749      -0.00209861 
H      -0.15897474       1.67248381      -2.31482748      105       0.00003999       0.00314707      -0.00486976 
H       0.34059273       0.00592335      -2.67575083      105       0.00073672      -0.00130692      -0.00394395 
H      -0.86017215       0.31771316      -1.40364587      105       0.00242893      -0.00424343       0.00946956 
H       0.83900384       0.77260724      -1.15226915      105      -0.00389055      -0.00398892       0.00677734 
C      -0.04010652      -0.69218189       1.88662333      160      -0.00216741      -0.00201619       0.00458016 
H      -0.06420111      -1.63913844       1.35118526      160       0.00150115      -0.00099693      -0.00711700 
H       0.86255565      -0.14688010       1.61865651      160      -0.00010335       0.00265238      -0.00291194 
H      -0.04508591      -0.88111538       2.95805170      160       0.00022926      -0.00195498       0.00473814 
H      -0.91374191      -0.10157004       1.61844412      160       0.00100170       0.00575043      -0.00462397 
10
Lattice="25.63547 0.0 0.0 0.0 25.63554 0.0 0.0 0.0 25.63547" Properties=species:S:1:pos:R:3:resid:I:1:force:R:3 energy=-0.01310943 ediff_cc=-0.00477036 cutoff=-1.0 nneightol=1.2 pbc="T T T"
C      -0.16400292       1.12070890      -1.30893428        4      -0.01780625       0.03423841      -0.04052537 
H       0.08540457       0.13453531      -1.69513264        4      -0.00017316      -0.00539119       0.01217035 
H      -0.36065261       1.79620538      -2.13895953        4       0.00226197       0.00855242      -0.01064157 
H       0.66876532       1.50129413      -0.72106168        4       0.00266194      -0.00136827      -0.00221570 
H      -1.04952896       1.05085206      -0.68055764        4       0.00568001      -0.00273920      -0.00384749 
C       0.16400292      -1.12070890       1.30893428      105       0.00734477      -0.00442437       0.05143663 
H       0.28061867      -1.57327873       2.29159312      105       0.00130459      -0.01656476       0.00605791 
H       0.27005686      -0.04099123       1.39183939      105      -0.00205086      -0.02289719       0.00064216 
H      -0.82162963      -1.35906815       0.91445567      105      -0.00290498       0.00504390      -0.00580292 
H       0.92704268      -1.50962568       0.63779768      105       0.00368203       0.00555030      -0.00727404 
10
Lattice="30.0 0.0 0.0 0.0 30.0 0.0 0.0 0.0 30.0" Properties=species:S:1:pos:R:3:resid:I:1:force:R:3 energy=-0.00332791 ediff_cc=-0.00016463 cutoff=-1.0 nneightol=1.2 pbc="T T T"
C       0.67158228      -2.59791132      -0.60807867      141      -0.00032374       0.00044284      -0.00056343 
H      -0.15312802      -2.13688321      -1.14775050      141      -0.00085602       0.00175463       0.00039339 
H       0.34371368      -3.54528519      -0.18504057      141      -0.00004398      -0.00078810       0.00020258 
H       0.99619047      -1.93624397       0.19245060      141      -0.00035806       0.00270098       0.00109667 
H       1.49960239      -2.77323292      -1.29190011      141       0.00074693      -0.00041841      -0.00035857 
C      -0.67158228       2.59791132       0.60807867      191       0.00059699      -0.00082233      -0.00060174 
H       0.11644843       2.35513365      -0.10190014      191       0.00100578      -0.00152648      -0.00119557 
H      -0.53541085       3.61607580       0.96692129      191       0.00002165       0.00077894       0.00038273 
H      -0.62766557       1.90820932       1.44854796      191      -0.00028939      -0.00160700       0.00075526 
H      -1.63965173       2.51220184       0.11877029      191      -0.00050017      -0.00051508      -0.00011128 
10
Lattice="24.63702 0.0 0.0 0.0 24.637 0.0 0.0 0.0 24.63703" Properties=species:S:1:pos:R:3:resid:I:1:force:R:3 energy=-0.00971926 ediff_cc=-0.00085348 cutoff=-1.0 nneightol=1.2 pbc="T T T"
C      -1.54119342       1.36413837      -1.09578118      118       0.00007378       0.00046419      -0.00034873 
H      -2.08367597       0.69691914      -1.76250849      118      -0.00116603      -0.00102715      -0.00112917 
H      -2.06229103       1.42688881      -0.14262377      118       0.00088436      -0.00130278       0.00200389 
H      -1.48226167       2.35442259      -1.54284473      118      -0.00085141       0.00173304      -0.00143001 
H      -0.53654502       0.97832295      -0.93517238      118       0.00761774      -0.00630514       0.00632482 
C       1.54119342      -1.36413837       1.09578118      134      -0.00316984       0.00213607      -0.00042066 
H       1.79421562      -0.30918203       1.17944854      134       0.00048131       0.00504947       0.00163795 
H       2.41164398      -1.96690721       1.34680788      134       0.00204967      -0.00007520      -0.00079137 
H       1.23037278      -1.58286566       0.07620233      134      -0.00344517      -0.00211207      -0.00474594 
H       0.72856596      -1.59767249       1.78066598      134      -0.00247443       0.00143958      -0.00110076 
10
Lattice="30.0 0.0 0.0 0.0 30.0 0.0 0.0 0.0 30.0" Properties=species:S:1:pos:R:3:resid:I:1:force:R:3 energy=-0.00033689 ediff_cc=-1.447e-05 cutoff=-1.0 nneightol=1.2 pbc="T T T"
C      -3.99877942      -0.20419916      -0.02043282       63       0.00006744      -0.00002329       0.00009929 
H      -4.73278100      -0.34497738      -0.81112298       63      -0.00005617       0.00001701      -0.00007982 
H      -3.01232109      -0.47882280      -0.38822365       63       0.00032326      -0.00004910      -0.00011604 
H      -4.25661260      -0.83225394       0.82979902       63      -0.00003908      -0.00006273       0.00009616 
H      -3.99337940       0.83921032       0.28783989       63      -0.00002694       0.00014379       0.00000925 
C       3.99877942       0.20419916       0.02043282       74      -0.00013397       0.00005892      -0.00014298 
H       3.17635431       0.73592580       0.49440831       74      -0.00021085       0.00013173       0.00016430 
H       3.70550184      -0.82720762      -0.16392242       74       0.00001870      -0.00023662       0.00001374 
H       4.86773429       0.22268662       0.67491987       74       0.00001781      -0.00003781       0.00005668 
H       4.24555317       0.68536826      -0.92367447       74       0.00003980       0.00005807      -0.00010057 
10
Lattice="24.73544 0.0 0.0 0.0 24.73541 0.0 0.0 0.0 24.73544" Properties=species:S:1:pos:R:3:resid:I:1:force:R:3 energy=-0.01362054 ediff_cc=-0.00173747 cutoff=-1.0 nneightol=1.2 pbc="T T T"
C       1.90132670       0.48149949      -0.84983551       47      -0.00012265      -0.00118781       0.00264824 
H       2.00489399       1.23375278      -0.07039706       47       0.00050084       0.00280813       0.00453346 
H       0.94940803       0.61606012      -1.35955872       47      -0.00409785      -0.00322150      -0.00605429 
H       1.93687153      -0.51036571      -0.40373185       47      -0.00620749      -0.00251951       0.00229311 
H       2.71408379       0.58662498      -1.56565441       47       0.00145067       0.00270042      -0.00192715 
C      -1.90132670      -0.48149949       0.84983551      163      -0.00108952       0.00368878      -0.00176716 
H      -2.15308401      -0.20594702       1.87197810      163      -0.00186598       0.00018742       0.00226860 
H      -1.44072807      -1.46735399       0.84293432      163       0.00457588      -0.00117607      -0.00197713 
H      -1.20529615       0.24693360       0.43875723      163       0.01114215       0.00031285       0.00011325 
H      -2.80617383      -0.49968002       0.24572186      163      -0.00428605      -0.00159273      -0.00013092 
10
Lattice="25.63547 0.0 0.0 0.0 25.63554 0.0 0.0 0.0 25.63547" Properties=species:S:1:pos:R:3:resid:I:1:force:R:3 energy=-0.00542269 ediff_cc=-0.00038908 cutoff=-1.0 nneightol=1.2 pbc="T T T"
C       0.63795149       2.17129178       1.16528923       69       0.00030601       0.00014418      -0.00154161 
H       0.67596889       2.95043275       0.40621635       69       0.00042831       0.00101571      -0.00074958 
H      -0.27405599       1.59059553       1.04287325       69      -0.00182721      -0.00494754      -0.00084283 
H       0.64820568       2.62675842       2.15340694       69      -0.00025311       0.00056227       0.00091907 
H       1.50120031       1.51814950       1.05781873       69      -0.00009215      -0.00226540      -0.00087964 
C      -0.63795149      -2.17129178      -1.16528923       73       0.00042249       0.00004028       0.00228075 
H       0.42104978      -2.09689745      -0.92693063       73       0.00116059       0.00219344       0.00099462 
H      -0.76359093      -2.73722197      -2.08608968       73      -0.00064566      -0.00030503      -0.00096575 
H      -1.05181052      -1.17322331      -1.29367167       73       0.00085234       0.00445007      -0.00021603 
H      -1.15750556      -2.67782442      -0.35451622       73      -0.00035165      -0.00088794       0.00100097 
10
Lattice="23.911787 0.0 0.0 0.0 23.911763 0.0 0.0 0.0 23.911792" Properties=species:S:1:pos:R:3:resid:I:1:force:R:3 energy=0.02157251 ediff_cc=-0.0079023 cutoff=-1.0 nneightol=1.2 pbc="T T T"
C       0.24130580      -0.13062996      -1.58713324       90      -0.01424474       0.01972719      -0.14378444 
H      -0.01177656      -1.13114595      -1.24218173       90       0.00569583       0.01230994      -0.03517897 
H       1.24588779       0.12410205      -1.25540495       90      -0.00310949      -0.00362969       0.00672649 
H      -0.46849169       0.58488172      -1.17683080       90       0.02216844      -0.02455248      -0.02405962 
H       0.19962755      -0.10030985      -2.67404374       90       0.01472210      -0.00673941      -0.02315242 
C      -0.24130580       0.13062996       1.58713324      186      -0.00833493      -0.05900805       0.12544064 
H      -0.36839695      -0.78014518       1.00538325      186       0.00310167       0.04881544       0.07136295 
H       0.73073225       0.56809567       1.36841208      186      -0.00686392      -0.00826599      -0.00578215 
H      -0.30311777      -0.10475743       2.64707124      186      -0.00556550       0.02043106       0.02618337 
H      -1.02487115       0.83947026       1.32706859      186      -0.00756946       0.00091199       0.00224414 
10
Lattice="30.0 0.0 0.0 0.0 30.0 0.0 0.0 0.0 30.0" Properties=species:S:1:pos:R:3:resid:I:1:force:R:3 energy=-0.0067833 ediff_cc=-0.00205951 cutoff=-1.0 nneightol=1.2 pbc="T T T"
C       1.55564979       0.10953333       1.69923796       31       0.00363113       0.00328155       0.00705422 
H       0.97439092      -0.26536869       0.85920630       31       0.00566566      -0.00197914       0.00213036 
H       1.93926946       1.09973257       1.46171015       31      -0.00169822       0.00072495      -0.00349976 
H       2.38735492      -0.56445109       1.89438800       31      -0.00000257      -0.00214945      -0.00161826 
H       0.92163465       0.16822813       2.58161689       31      -0.00294987      -0.00070318      -0.00067333 
C      -1.55564979      -0.10953333      -1.69923796      138      -0.00446622      -0.00066864      -0.00674615 
H      -1.14960171      -0.42274332      -2.65896062      138       0.00168408      -0.00091911      -0.00072962 
H      -2.45352252      -0.68400734      -1.48038949      138       0.00007269      -0.00149706       0.00190815 
H      -1.80312423       0.94938873      -1.73827812      138       0.00274315       0.00122038       0.00321926 
H      -0.81683330      -0.28025576      -0.91988011      138      -0.00467983       0.00268969      -0.00104484 
10
Lattice="26.26506 0.0 0.0 0.0 26.26514 0.0 0.0 0.0 26.26507" Properties=species:S:1:pos:R:3:resid:I:1:force:R:3 energy=-0.00945556 ediff_cc=-0.00122944 cutoff=-1.0 nneightol=1.2 pbc="T T T"
C      -0.57527048       1.74572566      -1.47349669       34       0.00264238      -0.00475638      -0.00531095 
H      -0.78226541       1.41806804      -0.45674957       34      -0.00274676       0.00210974       0.00812034 
H       0.46346012       1.53368719      -1.71847100       34       0.00293007      -0.00150908       0.00095676 
H      -0.75565891       2.81579373      -1.55360516       34      -0.00062868       0.00060904       0.00253890 
H      -1.22659143       1.21535369      -2.16516105       34      -0.00124871      -0.00145678      -0.00036349 
C       0.57527048      -1.74572566       1.47349669      136      -0.00079079      -0.00039573       0.00389818 
H       0.98537312      -1.25656370       2.35468979      136       0.00097906       0.00066906       0.00161536 
H       1.36834396      -2.27743716       0.95171481      136       0.00029446       0.00084095      -0.00192585 
H       0.14344663      -0.99790460       0.81148560      136      -0.00045869       0.00505401      -0.01007954 
H      -0.19608181      -2.45097094       1.77612283      136      -0.00097230      -0.00116481       0.00055030 
10
Lattice="30.0 0.0 0.0 0.0 30.0 0.0 0.0 0.0 30.0" Properties=species:S:1:pos:R:3:resid:I:1:force:R:3 energy=-0.00426963 ediff_cc=-0.00025009 cutoff=-1.0 nneightol=1.2 pbc="T T T"
C       2.35613243      -0.19821034      -1.16994153       36      -0.00008713      -0.00052493       0.00079659 
H       2.97804774      -0.87679455      -0.58967847       36       0.00082422      -0.00043009       0.00052882 
H       2.25733931       0.74659976      -0.63931197       36      -0.00159024       0.00069556       0.00083606 
H       1.37151841      -0.63975024      -1.31106032       36      -0.00412607       0.00069574       0.00112074 
H       2.81737485      -0.02319562      -2.13971538       36       0.00055684       0.00007150      -0.00082349 
C      -2.35613243       0.19821034       1.16994153      176       0.00099270       0.00077909      -0.00163445 
H      -2.82423375       0.46436141       0.22443573      176      -0.00046348       0.00066386      -0.00097283 
H      -1.84697747      -0.75782345       1.06616012      176       0.00257094      -0.00149070       0.00019766 
H      -3.11806909       0.12131560       1.94295220      176      -0.00080968      -0.00048976       0.00048477 
H      -1.63519953       0.96493791       1.44626797      176       0.00213186       0.00002969      -0.00053387 
10
Lattice="24.03143 0.0 0.0 0.0 24.031406 0.0 0.0 0.0 24.031435" Properties=species:S:1:pos:R:3:resid:I:1:force:R:3 energy=0.00725294 ediff_cc=-0.00686702 cutoff=-1.0 nneightol=1.2 pbc="T T T"
C      -1.60292041      -0.48125294       0.09396291        1      -0.06200476       0.00757674       0.02382559 
H      -2.55062389      -0.15134979       0.51441690        1      -0.02428993      -0.01476138      -0.00341290 
H      -1.25749264       0.24670641      -0.63714544        1      -0.01580251      -0.02187012       0.02473102 
H      -1.73737626      -1.44611389      -0.39058291        1      -0.00913455      -0.01369234      -0.00560034 
H      -0.86616483      -0.57430254       0.88913906        1      -0.03284102       0.00591476      -0.02545190 
C       1.60292041       0.48125294      -0.09396291        2       0.11012544       0.01006601      -0.02913024 
H       2.65821500       0.67780581      -0.27636150        2       0.01821624       0.01105143       0.00518162 
H       1.00489828       1.28161891      -0.52472638        2       0.00958013      -0.00424268       0.00837887 
H       1.42330950       0.43093117       0.97793522        2       0.00389528       0.00604417      -0.00367987 
H       1.32612640      -0.46558446      -0.55291526        2       0.00225564       0.01391344       0.00515813 
10
Lattice="30.0 0.0 0.0 0.0 30.0 0.0 0.0 0.0 30.0" Properties=species:S:1:pos:R:3:resid:I:1:force:R:3 energy=-0.00918535 ediff_cc=-0.00094483 cutoff=-1.0 nneightol=1.2 pbc="T T T"
C      -1.12277299      -1.53108012       1.37996582       58       0.00240571       0.00135218       0.00212767 
H      -0.87732808      -1.80001954       0.35454556       58       0.00003108       0.00063364      -0.00523714 
H      -0.72761169      -0.54132807       1.59989154       58       0.00307634       0.00537070      -0.00293254 
H      -0.68239684      -2.25691663       2.06066331       58       0.00048341      -0.00148038       0.00093521 
H      -2.20373037      -1.52603126       1.50483784       58      -0.00107890      -0.00021141      -0.00131763 
C       1.12277299       1.53108012      -1.37996582      188       0.00076887      -0.00138897      -0.00039241 
H       0.59161721       2.10887497      -0.62623469      188      -0.00270372       0.00004711       0.00226573 
H       2.15336668       1.87510263      -1.44042727      188       0.00149583       0.00091591      -0.00025976 
H       0.63868165       1.66262549      -2.34560947      188      -0.00128266       0.00074495      -0.00076820 
H       1.10745143       0.47781737      -1.10702697      188      -0.00319599      -0.00598369       0.00557902 
10
Lattice="30.0 0.0 0.0 0.0 30.0 0.0 0.0 0.0 30.0" Properties=species:S:1:pos:R:3:resid:I:1:force:R:3 energy=-0.00426066 ediff_cc=-0.00030522 cutoff=-1.0 nneightol=1.2 pbc="T T T"
C      -0.89511410      -0.79946292      -2.42321045       58       0.00068182       0.00026369      -0.00094584 
H      -1.36331261      -1.70614580      -2.80077143       58      -0.00056413      -0.00052630      -0.00036543 
H       0.02253547      -0.60805922      -2.97562615       58       0.00076541       0.00015195      -0.00001649 
H      -0.66362151      -0.92345286      -1.36732020       58       0.00136314       0.00153861       0.00529474 
H      -1.57600638       0.03980622      -2.54911119       58      -0.00061834       0.00051240       0.00040492 
C       0.89511410       0.79946292       2.42321045      194      -0.00188594       0.00144246      -0.00071625 
H       1.88860099       1.13411763       2.71448946      194       0.00063739      -0.00064995      -0.00056876 
H       0.50344631       1.45654798       1.64942836      194      -0.00079402       0.00084442      -0.00246080 
H       0.23576855       0.82468208       3.28836714      194      -0.00052396      -0.00048827       0.00032972 
H       0.95240941      -0.21741899       2.04032571      194       0.00093863      -0.00308902      -0.00095581 
10
Lattice="24.80467 0.0 0.0 0.0 24.80475 0.0 0.0 0.0 24.80468" Properties=species:S:1:pos:R:3:resid:I:1:force:R:3 energy=-0.00764 ediff_cc=-0.00069619 cutoff=-1.0 nneightol=1.2 pbc="T T T"
C      -0.94361926       2.27271041       0.16231935       26      -0.00296076      -0.00300312       0.00164232 
H      -1.47230599       2.55424433       1.07070641       26      -0.00040518       0.00034001       0.00117443 
H       0.04053083       1.88682292       0.42024585       26       0.00620610      -0.00148342      -0.00016655 
H      -0.83452832       3.14494464      -0.47898333       26       0.00149691      -0.00020190      -0.00058307 
H      -1.50812394       1.50482977      -0.36270147       26      -0.00073643      -0.00340505      -0.00218626 
C       0.94361926      -2.27271041      -0.16231935      155       0.00126608      -0.00016059      -0.00118305 
H       1.06784104      -2.07578550      -1.22515524      155      -0.00009433       0.00141561      -0.00114139 
H       1.90594123      -2.53420209       0.27303752      155       0.00123245      -0.00101071       0.00037055 
H       0.24737697      -3.09759238      -0.02524124      155      -0.00076181      -0.00059732       0.00074104 
H       0.55329297      -1.38331130       0.32814359      155      -0.00524303       0.00810647       0.00133200 
10
Lattice="30.0 0.0 0.0 0.0 30.0 0.0 0.0 0.0 30.0" Properties=species:S:1:pos:R:3:resid:I:1:force:R:3 energy=-0.00969965 ediff_cc=-0.0010769 cutoff=-1.0 nneightol=1.2 pbc="T T T"
C      -1.37787079       1.90041444       0.01130136      116      -0.00067162      -0.00084273       0.00378275 
H      -1.45943394       2.67930056       0.76669126      116      -0.00030397       0.00136283       0.00109957 
H      -1.99184255       1.04965904       0.29976998      116      -0.00138140      -0.00382941      -0.00007504 
H      -0.33976585       1.58591077      -0.07478234      116       0.00719349      -0.00302632      -0.00379090 
H      -1.72041666       2.28673906      -0.94649765      116       0.00084348      -0.00083893      -0.00128156 
C       1.37787079      -1.90041444      -0.01130136      142       0.00240676       0.00168771      -0.00228726 
H       0.84978933      -1.11961858       0.53222740      142      -0.00769039       0.00538780       0.00290840 
H       1.09679946      -2.87320018       0.38701404      142      -0.00051815      -0.00063445       0.00102463 
H       2.45081050      -1.75863396       0.10137377      142       0.00226102      -0.00075080       0.00035202 
H       1.11415641      -1.85025340      -1.06574811      142      -0.00213926       0.00148428      -0.00173262 
10
Lattice="30.0 0.0 0.0 0.0 30.0 0.0 0.0 0.0 30.0" Properties=species:S:1:pos:R:3:resid:I:1:force:R:3 energy=-0.00426631 ediff_cc=-0.000246 cutoff=-1.0 nneightol=1.2 pbc="T T T"
C       1.16870340       2.42298368      -0.28717781       18      -0.00164257      -0.00070319       0.00056003 
H       0.34922330       3.10864898      -0.08153683       18      -0.00060428       0.00035808       0.00020437 
H       1.93726087       2.93777299      -0.86018921       18       0.00076407       0.00002269       0.00003100 
H       0.79722122       1.57479772      -0.85871319       18      -0.00180351      -0.00379950      -0.00114228 
H       1.59113457       2.07063595       0.65164891       18       0.00114321      -0.00034425       0.00142041 
C      -1.16870340      -2.42298368       0.28717781      138       0.00097266       0.00088588      -0.00155164 
H      -1.61915256      -3.11036222       1.00035824      138      -0.00035463      -0.00039060       0.00027621 
H      -0.70779032      -1.59535661       0.82255075      138       0.00179567       0.00413714       0.00094307 
H      -1.93662829      -2.03953404      -0.38164299      138      -0.00108422       0.00058949      -0.00038554 
H      -0.41129514      -2.94665548      -0.29258110      138       0.00081359      -0.00075580      -0.00035559 
10
Lattice="24.45339 0.0 0.0 0.0 24.45337 0.0 0.0 0.0 24.453399" Properties=species:S:1:pos:R:3:resid:I:1:force:R:3 energy=-0.01381999 ediff_cc=-0.00388958 cutoff=-1.0 nneightol=1.2 pbc="T T T"
C       1.44995153       0.93778674      -0.72846676      136       0.00285401       0.01651078      -0.00793852 
H       0.54163036       1.27526770      -0.23343215      136       0.00334609      -0.00790321      -0.00329178 
H       1.59266152       1.50129020      -1.64828136      136       0.01168199       0.00604415      -0.00424173 
H       1.36367997      -0.12150880      -0.96187445      136      -0.00731744      -0.00031999       0.00500227 
H       2.30193209       1.09595114      -0.07035243      136       0.00995036       0.00367880       0.00036965 
C      -1.44995153      -0.93778674       0.72846676      180      -0.00792185      -0.02015299       0.00209769 
H      -0.47602192      -0.86330177       1.20794900      180       0.00254996       0.00147901      -0.00911448 
H      -1.84810163      -1.94054608       0.86980740      180      -0.01265177      -0.00271669       0.00710968 
H      -1.34680713      -0.73516612      -0.33564735      180       0.00612518      -0.00036412       0.00499255 
H      -2.12892436      -0.21215744       1.17170907      180      -0.00861654       0.00374425       0.00501464 
10
Lattice="25.46468 0.0 0.0 0.0 25.46475 0.0 0.0 0.0 25.46468" Properties=species:S:1:pos:R:3:resid:I:1:force:R:3 energy=0.00692859 ediff_cc=-0.00623739 cutoff=-1.0 nneightol=1.2 pbc="T T T"
C      -0.95232174      -1.36204582      -0.43119343        1       0.02454101      -0.05221877      -0.04263814 
H       0.02917106      -0.95840406      -0.67422833        1      -0.07518621      -0.05742218       0.00741329 
H      -1.09105331      -1.35076493       0.64789785        1       0.00574137       0.00479080       0.00496156 
H      -1.02479422      -2.38471018      -0.79549114        1      -0.02533238      -0.01308353       0.00003015 