10
Lattice="6.0 0.0 0.0 0.0 6.0 0.0 0.0 0.0 6.0" Properties=species:S:1:pos:R:3:dftb_forces_eV_per_Ang:R:3:forces:R:3 index=0 energy=-291.0517897517408 dftb_energy_eV=-291.0517897517408 pos_unit=angstrom pbc="F F F"
O       4.33194475       2.18328178       3.01167023       0.33867358      -0.72635788      -0.07924036       0.33867358      -0.72635788      -0.07924036 
C       3.78969919       3.47236085       2.98037008      -1.11591029       0.38093566       1.07255911      -1.11591029       0.38093566       1.07255911 
C       2.28660863       3.45722806       3.01419351       0.14416701      -0.43484940      -0.21012373       0.14416701      -0.43484940      -0.21012373 
C       1.55405622       2.33802104       2.99647256       1.10481542      -0.19941833      -0.11346581       1.10481542      -0.19941833      -0.11346581 
H       5.30198126       2.30350292       3.00225192       0.13274518      -0.25250985       0.00157916       0.13274518      -0.25250985       0.00157916 
H       4.15447300       4.06405502       3.85488510       0.02210022       0.08397515       0.36861262       0.02210022       0.08397515       0.36861262 
H       4.17940979       4.04158240       2.14311946       0.14734256       0.47928205      -1.15069568       0.14734256       0.47928205      -1.15069568 
H       1.81083362       4.43323368       3.05501371      -0.22232780       0.44570504       0.01302838      -0.22232780       0.44570504       0.01302838 
H       0.46478729       2.31425404       3.00022214      -0.06732319       0.10015744       0.05638690      -0.06732319       0.10015744       0.05638690 
H       2.12620627       1.39248019       2.94180127      -0.48428270       0.12308014       0.04135939      -0.48428270       0.12308014       0.04135939 
10
Lattice="6.0 0.0 0.0 0.0 6.0 0.0 0.0 0.0 6.0" Properties=species:S:1:pos:R:3:dftb_forces_eV_per_Ang:R:3:forces:R:3 index=1 energy=-289.8398288528602 dftb_energy_eV=-289.8398288528602 pos_unit=angstrom pbc="F F F"
O       4.34474276       2.18277196       2.84887883       5.23697340       0.71879857       2.92932188       5.23697340       0.71879857       2.92932188 
C       3.81800394       3.51983682       2.96973916      -0.31943338      -1.06921412      -0.44483978      -0.31943338      -1.06921412      -0.44483978 
C       2.36363540       3.38015256       2.91245689      -1.31726107       5.04790265      -1.71511780      -1.31726107       5.04790265      -1.71511780 
C       1.57485042       2.35412029       2.96934119       0.66289068      -4.03001522       1.09331365       0.66289068      -4.03001522       1.09331365 
H       5.35275446       2.29667328       3.51039175      -3.99838847      -1.02475331      -2.95939595      -3.99838847      -1.02475331      -2.95939595 
H       4.11446486       3.91053138       3.93441276       0.33069810       0.68933943       0.79784036       0.33069810       0.68933943       0.79784036 
H       4.15142260       4.21910153       2.16462032       0.30635645      -0.15334354      -0.00947786       0.30635645      -0.15334354      -0.00947786 
H       1.81280015       4.39676581       2.56052981       1.01384421      -1.60346968       0.92153413       1.01384421      -1.60346968       0.92153413 
H       0.53389250       2.43440846       2.90223384      -1.76097660       0.28691900      -0.30934004      -1.76097660       0.28691900      -0.30934004 
H       1.93343292       1.30563793       3.22739546      -0.15470332       1.13783620      -0.30383859      -0.15470332       1.13783620      -0.30383859 
10
Lattice="6.0 0.0 0.0 0.0 6.0 0.0 0.0 0.0 6.0" Properties=species:S:1:pos:R:3:dftb_forces_eV_per_Ang:R:3:forces:R:3 index=2 energy=-290.346107672359 dftb_energy_eV=-290.346107672359 pos_unit=angstrom pbc="F F F"
O       4.20901481       2.21262910       2.88931022       2.83304721      -0.51619551       0.82179419       2.83304721      -0.51619551       0.82179419 
C       3.82146541       3.55140157       3.03900875      -3.05855808       0.17798253      -0.15928288      -3.05855808       0.17798253      -0.15928288 
C       2.26908920       3.56068619       2.91628739      -0.33571472      -1.34731053      -0.96762557      -0.33571472      -1.34731053      -0.96762557 
C       1.66009764       2.32519217       3.05619794      -1.34032863       2.90145870      -1.27597542      -1.34032863       2.90145870      -1.27597542 
H       5.14758531       2.23063691       3.28449232      -1.26596560      -0.69549245      -0.76700479      -1.26596560      -0.69549245      -0.76700479 
H       4.02145986       3.84667929       4.10071099       0.63057082       0.67494408      -0.33323167       0.63057082       0.67494408      -0.33323167 
H       4.27338056       4.15771814       2.20058155       0.04812666       0.34454167       0.70407559       0.04812666       0.34454167       0.70407559 
H       1.80064432       4.57773920       2.49876401       0.44812710      -2.05752859       1.12012641       0.44812710      -2.05752859       1.12012641 
H       0.53380267       2.10075422       2.82785705       1.78066422       0.73905419       0.50942183       1.78066422       0.73905419       0.50942183 
H       2.26346020       1.43656321       3.18678978       0.26003103      -0.22145409       0.34770231       0.26003103      -0.22145409       0.34770231 
10
Lattice="6.0 0.0 0.0 0.0 6.0 0.0 0.0 0.0 6.0" Properties=species:S:1:pos:R:3:dftb_forces_eV_per_Ang:R:3:forces:R:3 index=3 energy=-289.7355762124854 dftb_energy_eV=-289.7355762124854 pos_unit=angstrom pbc="F F F"
O       4.29824241       2.14562608       2.80000816       3.99998358       1.75168729       3.96438364       3.99998358       1.75168729       3.96438364 
C       3.76988896       3.54378052       2.94707039      -0.53841159      -1.10272169       0.67091721      -0.53841159      -1.10272169       0.67091721 
C       2.25986555       3.48712416       2.81014133       1.18019819       0.99470706       0.44730548       1.18019819       0.99470706       0.44730548 
C       1.61887618       2.35077228       2.98454998      -0.08805011      -0.28541335      -0.35362761      -0.08805011      -0.28541335      -0.35362761 
H       5.25530501       2.23230477       3.63212218      -3.83742162      -0.87438557      -3.69636251      -3.83742162      -0.87438557      -3.69636251 
H       4.08171626       3.88378967       4.01994588      -0.46450774       0.04727092      -1.38307536      -0.46450774       0.04727092      -1.38307536 
H       4.22984203       4.17268850       2.15593752       0.10874341       0.25227291       0.16061013       0.10874341       0.25227291       0.16061013 
H       1.67690202       4.40027310       2.70416109       0.11079155       0.55774624      -0.13040117       0.11079155       0.55774624      -0.13040117 
H       0.54890081       2.28333308       2.89854675      -0.56085051      -0.16429798       0.04579357      -0.56085051      -0.16429798       0.04579357 
H       2.26046076       1.50030781       3.04751670       0.08952484      -1.17686585       0.27445662       0.08952484      -1.17686585       0.27445662 
10
Lattice="6.0 0.0 0.0 0.0 6.0 0.0 0.0 0.0 6.0" Properties=species:S:1:pos:R:3:dftb_forces_eV_per_Ang:R:3:forces:R:3 index=4 energy=-290.99537228713547 dftb_energy_eV=-290.99537228713547 pos_unit=angstrom pbc="F F F"
O       4.35228766       2.16780320       2.96929010       0.09109392       0.43434013       0.24033043       0.09109392       0.43434013       0.24033043 
C       3.81884403       3.48982772       2.97544477      -1.99687715      -0.08143228       0.55754749      -1.99687715      -0.08143228       0.55754749 
C       2.28420002       3.46600977       3.00597298       1.58818460      -0.26844557      -0.01121106       1.58818460      -0.26844557      -0.01121106 
C       1.58704115       2.33154783       2.97925090       0.62553632       0.33511399       0.03458781       0.62553632       0.33511399       0.03458781 
H       5.27092041       2.32699987       3.25421418       0.43130050      -0.58396500      -0.01379950       0.43130050      -0.58396500      -0.01379950 
H       4.22388376       4.07682785       3.86067001      -0.18833530      -0.21874907      -0.44279232      -0.18833530      -0.21874907      -0.44279232 
H       4.09027142       4.01159057       2.04892496       0.47547503       0.49166414      -0.47357714       0.47547503       0.49166414      -0.47357714 
H       1.81120444       4.45559630       2.97115653      -0.19453591       0.00494231       0.09317936      -0.19453591       0.00494231       0.09317936 
H       0.52879442       2.32528093       2.96900548      -1.32595815       0.15560991      -0.02853757      -1.32595815       0.15560991      -0.02853757 
H       2.03255273       1.34851596       2.96607013       0.49411614      -0.26907857       0.04427250       0.49411614      -0.26907857       0.04427250 
10
Lattice="6.0 0.0 0.0 0.0 6.0 0.0 0.0 0.0 6.0" Properties=species:S:1:pos:R:3:dftb_forces_eV_per_Ang:R:3:forces:R:3 index=5 energy=-290.0848389889283 dftb_energy_eV=-290.0848389889283 pos_unit=angstrom pbc="F F F"
O       4.29529627       2.13412719       2.94332650      -2.17142795       0.66698840       0.22538088      -2.17142795       0.66698840       0.22538088 
C       3.76264204       3.45166325       3.10825840       0.14441341       1.12033951      -0.83690003       0.14441341       1.12033951      -0.83690003 
C       2.31945087       3.45293557       2.94742367      -1.80587534       2.51043891      -1.48550921      -1.80587534       2.51043891      -1.48550921 
C       1.65474375       2.32029574       3.04771629      -1.39489062      -2.67202258       1.13788278      -1.39489062      -2.67202258       1.13788278 
H       5.18425651       2.34896507       2.78900100       3.22730363      -0.18842056      -0.52073914       3.22730363      -0.18842056      -0.52073914 
H       4.09573539       3.91477483       4.03133742       0.31224221       0.18148479       1.18126475       0.31224221       0.18148479       1.18126475 
H       4.01546635       4.26388555       2.34745805       1.18959506      -0.97979486      -0.14392536       1.18959506      -0.97979486      -0.14392536 
H       1.90257724       4.50010293       2.42260991       0.47751301      -2.56431913       1.40984078       0.47751301      -2.56431913       1.40984078 
H       0.53915163       2.22171646       2.79002343       1.43283870       0.05573382       0.41087993       1.43283870       0.05573382       0.41087993 
H       2.23067995       1.39153343       3.57284532      -1.41171210       1.86957170      -1.37817539      -1.41171210       1.86957170      -1.37817539 
10
Lattice="6.0 0.0 0.0 0.0 6.0 0.0 0.0 0.0 6.0" Properties=species:S:1:pos:R:3:dftb_forces_eV_per_Ang:R:3:forces:R:3 index=6 energy=-290.9199809897343 dftb_energy_eV=-290.9199809897343 pos_unit=angstrom pbc="F F F"
O       4.36320958       2.18151618       2.86205204       1.52583097       0.70068785       0.73292688       1.52583097       0.70068785       0.73292688 
C       3.79136715       3.49353004       3.04784128      -0.21252183      -0.22797861      -0.15322909      -0.21252183      -0.22797861      -0.15322909 
C       2.30504927       3.43429256       2.85206210      -0.57641582      -0.71412986       0.04829085      -0.57641582      -0.71412986       0.04829085 
C       1.52193210       2.34063256       3.05696119       1.96416367       0.32730592      -0.40803474       1.96416367       0.32730592      -0.40803474 
H       5.33770547       2.28256918       3.13987464      -1.39045114      -0.39625649      -0.48395243      -1.39045114      -0.39625649      -0.48395243 
H       4.00743321       3.88794935       4.07751547       0.11567601      -0.12925783       0.01870617       0.11567601      -0.12925783       0.01870617 
H       4.29368255       4.23578490       2.34176788      -0.44374444      -0.35190088       0.21118337      -0.44374444      -0.35190088       0.21118337 
H       1.87112889       4.40552819       2.53504802      -0.16646250      -0.31581253       0.03401641      -0.16646250      -0.31581253       0.03401641 
H       0.47007880       2.38668949       2.73176683       0.15420950      -0.22729846       0.43321132       0.15420950      -0.22729846       0.43321132 
H       2.03841302       1.35150755       3.35511056      -0.97028441       1.33464089      -0.43311874      -0.97028441       1.33464089      -0.43311874 
10
Lattice="6.0 0.0 0.0 0.0 6.0 0.0 0.0 0.0 6.0" Properties=species:S:1:pos:R:3:dftb_forces_eV_per_Ang:R:3:forces:R:3 index=7 energy=-289.6709278451143 dftb_energy_eV=-289.6709278451143 pos_unit=angstrom pbc="F F F"
O       4.29326404       2.19684554       2.88005011       4.33076844      -0.97942954       2.92616760       4.33076844      -0.97942954       2.92616760 
C       3.78055132       3.53002084       2.91908135       0.64932045       0.63246950       2.07341476       0.64932045       0.63246950       2.07341476 
C       2.31565792       3.54054708       2.96299004      -2.84477675      -1.40119563      -0.29886270      -2.84477675      -1.40119563      -0.29886270 
C       1.67571676       2.35321559       2.96086288       1.46796588       1.13152594       0.17831752       1.46796588       1.13152594       0.17831752 
H       5.25381292       2.17955406       3.67145261      -4.12543732      -0.01883704      -3.53359826      -4.12543732      -0.01883704      -3.53359826 
H       4.22883380       3.92386753       3.87601421      -0.26258741       0.83141249      -0.52715769      -0.26258741       0.83141249      -0.52715769 
H       4.06094123       4.10916204       2.05062971       0.89477568       0.67406645      -0.81976712       0.89477568       0.67406645      -0.81976712 
H       1.57052816       4.40579076       2.83244305       1.67844531      -0.36770529       0.09774481       1.67844531      -0.36770529       0.09774481 
H       0.65299357       2.36254532       2.76920541      -2.11319621      -0.24710228      -0.01844716      -2.11319621      -0.24710228      -0.01844716 
H       2.16770030       1.39845128       3.07727061       0.32472192      -0.25520460      -0.07781177       0.32472192      -0.25520460      -0.07781177 
10
Lattice="6.0 0.0 0.0 0.0 6.0 0.0 0.0 0.0 6.0" Properties=species:S:1:pos:R:3:dftb_forces_eV_per_Ang:R:3:forces:R:3 index=8 energy=-291.1021647756956 dftb_energy_eV=-291.1021647756956 pos_unit=angstrom pbc="F F F"
O       4.34351948       2.18486408       3.01266654      -0.01360359      -0.64423027       0.07249860      -0.01360359      -0.64423027       0.07249860 
C       3.80792519       3.48331145       2.99174432      -1.36836488       0.25188142      -0.16310238      -1.36836488       0.25188142      -0.16310238 
C       2.29753884       3.45539699       3.02237722       1.09754272       0.54832393       0.02714403       1.09754272       0.54832393       0.02714403 
C       1.58971896       2.34146134       2.99655559      -0.49860602      -0.56199773      -0.09456013      -0.49860602      -0.56199773      -0.09456013 
H       5.31540194       2.24060622       3.04712744       0.24005418       0.05561396      -0.00431664       0.24005418       0.05561396      -0.00431664 
H       4.15076878       4.09308711       3.84107798       0.38531228       0.25546118       0.53191982       0.38531228       0.25546118       0.53191982 
H       4.11556413       4.03091422       2.08000600       0.26620793       0.22925436      -0.40337492       0.26620793       0.22925436      -0.40337492 
H       1.80591038       4.43664984       3.06948897      -0.04305007       0.06300630      -0.02649040      -0.04305007       0.06300630      -0.02649040 
H       0.50136533       2.36497412       2.99140156      -0.17629072      -0.01841031       0.05548333      -0.17629072      -0.01841031       0.05548333 
H       2.07228699       1.36873463       2.94755436       0.11079817      -0.17890283       0.00479870       0.11079817      -0.17890283       0.00479870 
10
Lattice="6.0 0.0 0.0 0.0 6.0 0.0 0.0 0.0 6.0" Properties=species:S:1:pos:R:3:dftb_forces_eV_per_Ang:R:3:forces:R:3 index=9 energy=-290.5878077637294 dftb_energy_eV=-290.5878077637294 pos_unit=angstrom pbc="F F F"
O       4.41579349       2.17923390       2.96970719       3.40474029       0.44662233       1.60863890       3.40474029       0.44662233       1.60863890 
C       3.83528931       3.47861605       2.97349384      -1.48104853      -0.02088394      -1.28848929      -1.48104853      -0.02088394      -1.28848929 
C       2.31718964       3.40402257       3.01554161       0.87533832      -1.38968122       0.36955702       0.87533832      -1.38968122       0.36955702 
C       1.50177664       2.34314393       2.99324311       1.16917753       0.03959596      -0.42443114       1.16917753       0.03959596      -0.42443114 
H       5.37298603       2.31013548       3.47223969      -3.04770213      -0.71718724      -1.75762339      -3.04770213      -0.71718724      -1.75762339 
H       4.28146250       4.05356025       3.81220015      -0.31016731       0.31820609       0.05323688      -0.31016731       0.31820609       0.05323688 
H       4.01958139       4.07041478       1.97958304       0.43157503      -0.56571678       0.90509889       0.43157503      -0.56571678       0.90509889 
H       1.85296423       4.33030998       2.98629286      -0.96948938       2.45257474       0.23311129      -0.96948938       2.45257474       0.23311129 
H       0.40770383       2.44115540       2.97698725       0.25828035      -0.02017071      -0.02620569       0.25828035      -0.02017071      -0.02620569 
H       1.99525292       1.38940763       2.82071126      -0.33070415      -0.54335923       0.32710652      -0.33070415      -0.54335923       0.32710652 
10
Lattice="6.0 0.0 0.0 0.0 6.0 0.0 0.0 0.0 6.0" Properties=species:S:1:pos:R:3:dftb_forces_eV_per_Ang:R:3:forces:R:3 index=10 energy=-290.95044177988257 dftb_energy_eV=-290.95044177988257 pos_unit=angstrom pbc="F F F"
O       4.33664798       2.18825363       3.12008866       1.61729366      -0.30729380      -0.25064469       1.61729366      -0.30729380      -0.25064469 
C       3.81247978       3.49425214       3.01452078      -1.97944898       0.02266741      -1.57048061      -1.97944898       0.02266741      -1.57048061 
C       2.29856955       3.47941958       3.11325255       0.98724863       0.64895982       0.49306781       0.98724863       0.64895982       0.49306781 
C       1.62339782       2.34815591       3.01527497      -0.20255889      -1.33891952      -0.62068525      -0.20255889      -1.33891952      -0.62068525 
H       5.31042968       2.23753207       2.84699525      -1.29974406      -0.16205746       0.42059678      -1.29974406      -0.16205746       0.42059678 
H       4.18870734       4.16636627       3.76805074       0.79144329       0.78684199       0.78723385       0.79144329       0.78684199       0.78723385 
H       4.01959895       3.90506809       1.97960330       0.41228478       0.16805234       0.35503454       0.41228478       0.16805234       0.35503454 
H       1.77098178       4.45435112       3.31905894       0.44153522      -0.67598661      -0.12939759       0.44153522      -0.67598661      -0.12939759 
H       0.54588806       2.36468302       3.09299368      -0.52396806      -0.12623022       0.02630556      -0.52396806      -0.12623022       0.02630556 
H       2.09329902       1.36191814       2.73016111      -0.24408560       0.98396606       0.48896959      -0.24408560       0.98396606       0.48896959 
10
Lattice="6.0 0.0 0.0 0.0 6.0 0.0 0.0 0.0 6.0" Properties=species:S:1:pos:R:3:dftb_forces_eV_per_Ang:R:3:forces:R:3 index=11 energy=-289.48952877566086 dftb_energy_eV=-289.48952877566086 pos_unit=angstrom pbc="F F F"
O       4.27194723       2.18681981       3.12896424       5.72330215      -0.31141264      -4.28917540       5.72330215      -0.31141264      -4.28917540 
C       3.81627450       3.51262803       3.02520052      -2.36360900      -0.30143092       1.45444174      -2.36360900      -0.30143092       1.45444174 
C       2.32947228       3.46559061       3.04760166      -0.70123617      -0.64603168       0.80892060      -0.70123617      -0.64603168       0.80892060 
C       1.63410637       2.31128038       2.99640141      -0.94091935       2.09528524       0.57284730      -0.94091935       2.09528524       0.57284730 
H       5.26908848       2.31570788       2.31378472      -3.84909095      -1.38377775       3.62077724      -3.84909095      -1.38377775       3.62077724 
H       4.15854726       4.08450754       3.88923949       0.42495801       0.73443895       0.50912202       0.42495801       0.73443895       0.50912202 
H       4.08564427       3.99436291       2.12710792       1.02620787       0.91258086      -1.65219047       1.02620787       0.91258086      -1.65219047 
H       1.85303935       4.42967136       3.32326696      -0.23183240      -0.26550436      -0.51168951      -0.23183240      -0.26550436      -0.51168951 
H       0.54205320       2.37346803       3.14374778       0.21226254      -0.13257736      -0.15524881       0.21226254      -0.13257736      -0.15524881 
H       2.03982707       1.32596345       3.00468532       0.69995730      -0.70157034      -0.35780471       0.69995730      -0.70157034      -0.35780471 
10
Lattice="6.0 0.0 0.0 0.0 6.0 0.0 0.0 0.0 6.0" Properties=species:S:1:pos:R:3:dftb_forces_eV_per_Ang:R:3:forces:R:3 index=12 energy=-290.74317376003836 dftb_energy_eV=-290.74317376003836 pos_unit=angstrom pbc="F F F"
O       4.27071549       2.16978186       3.01150830       0.75911843       0.02257286      -0.34850229       0.75911843       0.02257286      -0.34850229 
C       3.81042476       3.49191117       2.99016384      -2.55044724       1.80720740       0.56531359      -2.55044724       1.80720740       0.56531359 
C       2.26768984       3.52072131       2.95698141       0.07263472      -1.06521507       0.86273202       0.07263472      -1.06521507       0.86273202 
C       1.62794853       2.33393513       2.99624850       0.44646587       0.89661070      -0.08032325       0.44646587       0.89661070      -0.08032325 
H       5.22604491       2.15065711       2.77980908      -0.15069331       0.02651147       0.08072486      -0.15069331       0.02651147       0.08072486 
H       4.05291928       4.09933227       3.92792767       0.46588911      -0.47335209      -0.26040352       0.46588911      -0.47335209      -0.26040352 
H       4.10280277       4.17154413       2.13852250       0.67206414      -0.65051711      -0.08324497       0.67206414      -0.65051711      -0.08324497 
H       1.77107681       4.49720972       3.16568812       0.16082642      -0.35134063      -0.57844988       0.16082642      -0.35134063      -0.57844988 
H       0.56603910       2.06517535       2.99604635      -0.03706297       0.66113389       0.10342472      -0.03706297       0.66113389       0.10342472 
H       2.30433847       1.49973195       3.03710425       0.16120483      -0.87361143      -0.26127129       0.16120483      -0.87361143      -0.26127129 
10
Lattice="6.0 0.0 0.0 0.0 6.0 0.0 0.0 0.0 6.0" Properties=species:S:1:pos:R:3:dftb_forces_eV_per_Ang:R:3:forces:R:3 index=13 energy=-291.01289989462913 dftb_energy_eV=-291.01289989462913 pos_unit=angstrom pbc="F F F"
O       4.34217939       2.20032404       2.96722849      -0.03231805      -0.82803913       0.10740418      -0.03231805      -0.82803913       0.10740418 
C       3.84240833       3.49455987       3.05944208      -1.88053082       0.51117290      -0.59752115      -1.88053082       0.51117290      -0.59752115 
C       2.32935945       3.42489199       2.96187046       0.24502994       0.02286608       0.33498511       0.24502994       0.02286608       0.33498511 
C       1.56484375       2.32503806       3.03769342       0.19707063       0.28573841      -0.17724914       0.19707063       0.28573841      -0.17724914 
H       5.30474362       2.21916942       2.97234210       0.83931547       0.03501008       0.01502877       0.83931547       0.03501008       0.01502877 
H       4.16568205       4.05192231       3.98059110       0.03115070      -0.16560434       0.03806390       0.03115070      -0.16560434       0.03806390 
H       4.12371359       4.14022015       2.17975990       0.51689782      -0.06152607       0.07295153       0.51689782      -0.06152607       0.07295153 
H       1.87068519       4.41090105       2.76529964      -0.17014986      -0.13646089       0.10823861      -0.17014986      -0.13646089       0.10823861 
H       0.47206626       2.42388980       2.89258464       0.37203771      -0.16885468       0.10623880       0.37203771      -0.16885468       0.10623880 
H       1.98431835       1.30908333       3.18318813      -0.11850355       0.50569766      -0.00814062      -0.11850355       0.50569766      -0.00814062 
10
Lattice="6.0 0.0 0.0 0.0 6.0 0.0 0.0 0.0 6.0" Properties=species:S:1:pos:R:3:dftb_forces_eV_per_Ang:R:3:forces:R:3 index=14 energy=-290.9318498915432 dftb_energy_eV=-290.9318498915432 pos_unit=angstrom pbc="F F F"
O       4.37249998       2.18459183       3.02914788      -0.09380180      -0.18112198      -0.53993405      -0.09380180      -0.18112198      -0.53993405 
C       3.83038871       3.49524588       2.99771684      -2.46974527      -0.45596368      -0.08555579      -2.46974527      -0.45596368      -0.08555579 
C       2.29059366       3.47196681       2.96842243       1.40729284       0.10755202       0.53480499       1.40729284       0.10755202       0.53480499 
C       1.58399944       2.34733499       3.01971626       0.89767763      -0.55435577      -0.43569881       0.89767763      -0.55435577      -0.43569881 
H       5.30987112       2.29957241       2.79687977       0.42916457      -0.29273474      -0.01716863       0.42916457      -0.29273474      -0.01716863 
H       4.08091549       3.95614034       3.94622349       0.50862125       1.03961485       0.73182656       0.50862125       1.03961485       0.73182656 
H       4.18706230       4.09781796       2.14171755       0.39436691       0.10354136      -0.13234448       0.39436691       0.10354136      -0.13234448 
H       1.80360190       4.45865089       3.13250926       0.10254055      -0.30578452      -0.27311170       0.10254055      -0.30578452      -0.27311170 
H       0.52891795       2.34869469       3.05869896      -1.43538796       0.18923560       0.13108504      -1.43538796       0.18923560       0.13108504 
H       2.01214949       1.33998424       2.90896753       0.25927128       0.35001686       0.08609688       0.25927128       0.35001686       0.08609688 
10
Lattice="6.0 0.0 0.0 0.0 6.0 0.0 0.0 0.0 6.0" Properties=species:S:1:pos:R:3:dftb_forces_eV_per_Ang:R:3:forces:R:3 index=15 energy=-287.49944143868106 dftb_energy_eV=-287.49944143868106 pos_unit=angstrom pbc="F F F"
O       4.30769882       2.12137376       2.67884574       3.06196035       1.53634648       4.27957704       3.06196035       1.53634648       4.27957704 
C       3.73134676       3.45921718       2.87781139       0.28082870       0.47004104       0.70400302       0.28082870       0.47004104       0.70400302 
C       2.27312056       3.45929925       2.74037018       1.52321266       1.49613112       0.15446254       1.52321266       1.49613112       0.15446254 
C       1.64431200       2.33165740       2.87487934      -0.71558915      -3.95479117       2.01006166      -0.71558915      -3.95479117       2.01006166 
H       5.23557053       2.39079122       3.93595002      -2.08401497      -1.77564833      -3.80478893      -2.08401497      -1.77564833      -3.80478893 
H       4.07301710       3.86783700       3.86040697      -0.55097915      -0.08455744       0.08669114      -0.55097915      -0.08455744       0.08669114 
H       4.08664868       4.22661893       2.21693209       1.07584826       0.48876644      -1.38687104       1.07584826       0.48876644      -1.38687104 
H       1.87438056       4.46525900       2.57668485      -0.65500071      -0.12346188      -0.27610830      -0.65500071      -0.12346188      -0.27610830 
H       0.56798348       2.33112179       2.88709851      -0.74116442      -0.33515618      -0.17261793      -0.74116442      -0.33515618      -0.17261793 
H       2.20592151       1.34682445       3.35102091      -1.19510158       2.28232993      -1.59440920      -1.19510158       2.28232993      -1.59440920 
10
Lattice="6.0 0.0 0.0 0.0 6.0 0.0 0.0 0.0 6.0" Properties=species:S:1:pos:R:3:dftb_forces_eV_per_Ang:R:3:forces:R:3 index=16 energy=-289.8323173211799 dftb_energy_eV=-289.8323173211799 pos_unit=angstrom pbc="F F F"
O       4.39718149       2.16998945       3.10525209       4.29055475       0.76227502      -4.23553174       4.29055475       0.76227502      -4.23553174 
C       3.81582657       3.47596662       3.11441458      -0.92436086       0.78687189       0.54425380      -0.92436086       0.78687189       0.54425380 
C       2.29570578       3.44665162       3.04875710       1.14053127       0.09269722      -0.12863758       1.14053127       0.09269722      -0.12863758 
C       1.55486141       2.34921383       3.06664533      -1.65323504      -1.22044015       0.35707801      -1.65323504      -1.22044015       0.35707801 
H       5.34077464       2.38607703       2.29267882      -3.80588510      -1.53402083       3.59663270      -3.80588510      -1.53402083       3.59663270 
H       4.22903667       3.99834793       4.02871066      -0.60059218       0.13784582      -0.04358005      -0.60059218       0.13784582      -0.04358005 
H       4.18062113       4.10813205       2.26905542      -0.01036371      -0.20304853      -0.12209195      -0.01036371      -0.20304853      -0.12209195 
H       1.80966459       4.39254265       2.82295541      -0.10911162       0.55182607       0.17391286      -0.10911162       0.55182607       0.17391286 