6
Lattice="75.0 0.0 0.0 0.0 75.0 0.0 0.0 0.0 75.0" Properties=species:S:1:pos:R:3 #=T cellangstrom=T 13.99750=T positionsangstrom=T 197=T Bead:=T 12.27710=T CELLabcABC:=T 0=T 115.56800=T 90.00000=T 12.67050=T Step:=T pbc="T T T"
S      38.26460650      38.63247750      34.10609167
S      38.99984650      38.32542950      35.99636167
S      38.25082650      36.59366750      36.83624167
S      36.29985850      36.96326750      37.62812167
S      36.43472250      37.90809050      39.45437167
S      36.75013950      36.57706750      40.97881167
