2
Lattice="10.0 0.0 0.0 0.0 10.0 0.0 0.0 0.0 10.0" Properties=species:S:1:pos:R:3:forces:R:3:energies:R:1 energy=1.5193483082101675 free_energy=1.5193483082101675 pbc="T T T"
O        0.00000000       0.00000000       0.00000000       0.00000000       0.00000000     -10.16541916       0.75967415
O        0.00000000       0.00000000       0.90000000       0.00000000       0.00000000      10.16541916       0.75967415
2
Lattice="10.0 0.0 0.0 0.0 10.0 0.0 0.0 0.0 10.0" Properties=species:S:1:pos:R:3:forces:R:3:energies:R:1 energy=1.1571597306500587 free_energy=1.1571597306500587 pbc="T T T"
N        0.00000000       0.00000000       0.00000000       0.00000000       0.00000000      -7.87844934      -0.98480549
O        0.00000000       0.00000000       0.90000000       0.00000000       0.00000000       7.87844934       2.14196522
2
Lattice="10.0 0.0 0.0 0.0 10.0 0.0 0.0 0.0 10.0" Properties=species:S:1:pos:R:3:forces:R:3:energies:R:1 energy=0.4765785000390472 free_energy=0.4765785000390472 pbc="T T T"
N        0.00000000       0.00000000       0.00000000       0.00000000       0.00000000      -4.64947593       0.23828925
N        0.00000000       0.00000000       0.90000000       0.00000000       0.00000000       4.64947593       0.23828925
2
Lattice="10.0 0.0 0.0 0.0 10.0 0.0 0.0 0.0 10.0" Properties=species:S:1:pos:R:3:forces:R:3:energies:R:1 energy=0.8203836098327466 free_energy=0.8203836098327466 pbc="T T T"
O        0.00000000       0.00000000       0.00000000       0.00000000       0.00000000      -4.16695853       0.41019180
O        0.00000000       0.00000000       1.00000000       0.00000000       0.00000000       4.16695853       0.41019180
2
Lattice="10.0 0.0 0.0 0.0 10.0 0.0 0.0 0.0 10.0" Properties=species:S:1:pos:R:3:forces:R:3:energies:R:1 energy=0.6594420338751674 free_energy=0.6594420338751674 pbc="T T T"
N        0.00000000       0.00000000       0.00000000       0.00000000       0.00000000      -2.40616659      -0.69715170
O        0.00000000       0.00000000       1.00000000       0.00000000       0.00000000       2.40616659       1.35659373
2
Lattice="10.0 0.0 0.0 0.0 10.0 0.0 0.0 0.0 10.0" Properties=species:S:1:pos:R:3:forces:R:3:energies:R:1 energy=0.26285268766779524 free_energy=0.26285268766779524 pbc="T T T"
N        0.00000000       0.00000000       0.00000000       0.00000000       0.00000000       0.07663707       0.13142634
N        0.00000000       0.00000000       1.00000000       0.00000000       0.00000000      -0.07663707       0.13142634
2
Lattice="10.0 0.0 0.0 0.0 10.0 0.0 0.0 0.0 10.0" Properties=species:S:1:pos:R:3:forces:R:3:energies:R:1 energy=0.6247507877880052 free_energy=0.6247507877880052 pbc="T T T"
O        0.00000000       0.00000000       0.00000000       0.00000000       0.00000000      -0.00939611       0.31237539
O        0.00000000       0.00000000       1.10000000       0.00000000       0.00000000       0.00939611       0.31237539
2
Lattice="10.0 0.0 0.0 0.0 10.0 0.0 0.0 0.0 10.0" Properties=species:S:1:pos:R:3:forces:R:3:energies:R:1 energy=0.6187322900974246 free_energy=0.6187322900974246 pbc="T T T"
N        0.00000000       0.00000000       0.00000000       0.00000000       0.00000000       1.34584537      -0.32233937
O        0.00000000       0.00000000       1.10000000       0.00000000       0.00000000      -1.34584537       0.94107166
2
Lattice="10.0 0.0 0.0 0.0 10.0 0.0 0.0 0.0 10.0" Properties=species:S:1:pos:R:3:forces:R:3:energies:R:1 energy=0.44034357303561467 free_energy=0.44034357303561467 pbc="T T T"
N        0.00000000       0.00000000       0.00000000       0.00000000       0.00000000       3.25179997       0.22017179
N        0.00000000       0.00000000       1.10000000       0.00000000       0.00000000      -3.25179997       0.22017179
2
Lattice="10.0 0.0 0.0 0.0 10.0 0.0 0.0 0.0 10.0" Properties=species:S:1:pos:R:3:forces:R:3:energies:R:1 energy=0.7729799296329807 free_energy=0.7729799296329807 pbc="T T T"
O        0.00000000       0.00000000       0.00000000       0.00000000       0.00000000       2.77876138       0.38648996
O        0.00000000       0.00000000       1.20000000       0.00000000       0.00000000      -2.77876138       0.38648996
2
Lattice="10.0 0.0 0.0 0.0 10.0 0.0 0.0 0.0 10.0" Properties=species:S:1:pos:R:3:forces:R:3:energies:R:1 energy=0.8861764337129503 free_energy=0.8861764337129503 pbc="T T T"
N        0.00000000       0.00000000       0.00000000       0.00000000       0.00000000       3.82135781       0.10047509
O        0.00000000       0.00000000       1.20000000       0.00000000       0.00000000      -3.82135781       0.78570134
2
Lattice="10.0 0.0 0.0 0.0 10.0 0.0 0.0 0.0 10.0" Properties=species:S:1:pos:R:3:forces:R:3:energies:R:1 energy=0.8751414634853771 free_energy=0.8751414634853771 pbc="T T T"
N        0.00000000       0.00000000       0.00000000       0.00000000       0.00000000       5.28165100       0.43757073
N        0.00000000       0.00000000       1.20000000       0.00000000       0.00000000      -5.28165100       0.43757073
2
Lattice="10.0 0.0 0.0 0.0 10.0 0.0 0.0 0.0 10.0" Properties=species:S:1:pos:R:3:forces:R:3:energies:R:1 energy=1.1469692306495354 free_energy=1.1469692306495354 pbc="T T T"
O        0.00000000       0.00000000       0.00000000       0.00000000       0.00000000       4.55805673       0.57348462
O        0.00000000       0.00000000       1.30000000       0.00000000       0.00000000      -4.55805673       0.57348462
2
Lattice="10.0 0.0 0.0 0.0 10.0 0.0 0.0 0.0 10.0" Properties=species:S:1:pos:R:3:forces:R:3:energies:R:1 energy=1.3518511235968063 free_energy=1.3518511235968063 pbc="T T T"
N        0.00000000       0.00000000       0.00000000       0.00000000       0.00000000       5.35960369       0.54303355
O        0.00000000       0.00000000       1.30000000       0.00000000       0.00000000      -5.35960369       0.80881758
2
Lattice="10.0 0.0 0.0 0.0 10.0 0.0 0.0 0.0 10.0" Properties=species:S:1:pos:R:3:forces:R:3:energies:R:1 energy=1.4689017306321919 free_energy=1.4689017306321919 pbc="T T T"
N        0.00000000       0.00000000       0.00000000       0.00000000       0.00000000       6.47587578       0.73445087
N        0.00000000       0.00000000       1.30000000       0.00000000       0.00000000      -6.47587578       0.73445087
2
Lattice="10.0 0.0 0.0 0.0 10.0 0.0 0.0 0.0 10.0" Properties=species:S:1:pos:R:3:forces:R:3:energies:R:1 energy=1.6601855443665425 free_energy=1.6601855443665425 pbc="T T T"
O        0.00000000       0.00000000       0.00000000       0.00000000       0.00000000       5.60297734       0.83009277
O        0.00000000       0.00000000       1.40000000       0.00000000       0.00000000      -5.60297734       0.83009277
2
Lattice="10.0 0.0 0.0 0.0 10.0 0.0 0.0 0.0 10.0" Properties=species:S:1:pos:R:3:forces:R:3:energies:R:1 energy=1.9355273361710603 free_energy=1.9355273361710603 pbc="T T T"
N        0.00000000       0.00000000       0.00000000       0.00000000       0.00000000       6.21867635       0.98541320
O        0.00000000       0.00000000       1.40000000       0.00000000       0.00000000      -6.21867635       0.95011413
2
Lattice="10.0 0.0 0.0 0.0 10.0 0.0 0.0 0.0 10.0" Properties=species:S:1:pos:R:3:forces:R:3:energies:R:1 energy=2.150365649675708 free_energy=2.150365649675708 pbc="T T T"
N        0.00000000       0.00000000       0.00000000       0.00000000       0.00000000       7.06966345       1.07518282
N        0.00000000       0.00000000       1.40000000       0.00000000       0.00000000      -7.06966345       1.07518282
2
Lattice="10.0 0.0 0.0 0.0 10.0 0.0 0.0 0.0 10.0" Properties=species:S:1:pos:R:3:forces:R:3:energies:R:1 energy=2.250072179382212 free_energy=2.250072179382212 pbc="T T T"
O        0.00000000       0.00000000       0.00000000       0.00000000       0.00000000       6.12142271       1.12503609
O        0.00000000       0.00000000       1.50000000       0.00000000       0.00000000      -6.12142271       1.12503609
2
Lattice="10.0 0.0 0.0 0.0 10.0 0.0 0.0 0.0 10.0" Properties=species:S:1:pos:R:3:forces:R:3:energies:R:1 energy=2.579510001068509 free_energy=2.579510001068509 pbc="T T T"
N        0.00000000       0.00000000       0.00000000       0.00000000       0.00000000       6.59385333       1.41401059
O        0.00000000       0.00000000       1.50000000       0.00000000       0.00000000      -6.59385333       1.16549941
2
Lattice="10.0 0.0 0.0 0.0 10.0 0.0 0.0 0.0 10.0" Properties=species:S:1:pos:R:3:forces:R:3:energies:R:1 energy=2.8687861585156504 free_energy=2.8687861585156504 pbc="T T T"
N        0.00000000       0.00000000       0.00000000       0.00000000       0.00000000       7.24053118       1.43439308
N        0.00000000       0.00000000       1.50000000       0.00000000       0.00000000      -7.24053118       1.43439308
2
Lattice="10.0 0.0 0.0 0.0 10.0 0.0 0.0 0.0 10.0" Properties=species:S:1:pos:R:3:forces:R:3:energies:R:1 energy=2.8721816361842487 free_energy=2.8721816361842487 pbc="T T T"
O        0.00000000       0.00000000       0.00000000       0.00000000       0.00000000       6.26990721       1.43609082
O        0.00000000       0.00000000       1.60000000       0.00000000       0.00000000      -6.26990721       1.43609082
2
Lattice="10.0 0.0 0.0 0.0 10.0 0.0 0.0 0.0 10.0" Properties=species:S:1:pos:R:3:forces:R:3:energies:R:1 energy=3.2431022569534926 free_energy=3.2431022569534926 pbc="T T T"
N        0.00000000       0.00000000       0.00000000       0.00000000       0.00000000       6.63192423       1.81996413
O        0.00000000       0.00000000       1.60000000       0.00000000       0.00000000      -6.63192423       1.42313813
2
Lattice="10.0 0.0 0.0 0.0 10.0 0.0 0.0 0.0 10.0" Properties=species:S:1:pos:R:3:forces:R:3:energies:R:1 energy=3.5888461000076615 free_energy=3.5888461000076615 pbc="T T T"
N        0.00000000       0.00000000       0.00000000       0.00000000       0.00000000       7.12149380       1.79442305
N        0.00000000       0.00000000       1.60000000       0.00000000       0.00000000      -7.12149380       1.79442305
2
Lattice="10.0 0.0 0.0 0.0 10.0 0.0 0.0 0.0 10.0" Properties=species:S:1:pos:R:3:forces:R:3:energies:R:1 energy=3.495654443792876 free_energy=3.495654443792876 pbc="T T T"
O        0.00000000       0.00000000       0.00000000       0.00000000       0.00000000       6.16541436       1.74782722
O        0.00000000       0.00000000       1.70000000       0.00000000       0.00000000      -6.16541436       1.74782722
2
Lattice="10.0 0.0 0.0 0.0 10.0 0.0 0.0 0.0 10.0" Properties=species:S:1:pos:R:3:forces:R:3:energies:R:1 energy=3.8983390250029295 free_energy=3.8983390250029295 pbc="T T T"
N        0.00000000       0.00000000       0.00000000       0.00000000       0.00000000       6.44237508       2.19792704
O        0.00000000       0.00000000       1.70000000       0.00000000       0.00000000      -6.44237508       1.70041199
2
Lattice="10.0 0.0 0.0 0.0 10.0 0.0 0.0 0.0 10.0" Properties=species:S:1:pos:R:3:forces:R:3:energies:R:1 energy=4.286743654814872 free_energy=4.286743654814872 pbc="T T T"
N        0.00000000       0.00000000       0.00000000       0.00000000       0.00000000       6.81135242       2.14337183
N        0.00000000       0.00000000       1.70000000       0.00000000       0.00000000      -6.81135242       2.14337183
2
Lattice="10.0 0.0 0.0 0.0 10.0 0.0 0.0 0.0 10.0" Properties=species:S:1:pos:R:3:forces:R:3:energies:R:1 energy=4.099746753179873 free_energy=4.099746753179873 pbc="T T T"
O        0.00000000       0.00000000       0.00000000       0.00000000       0.00000000       5.89462403       2.04987338
O        0.00000000       0.00000000       1.80000000       0.00000000       0.00000000      -5.89462403       2.04987338
2
Lattice="10.0 0.0 0.0 0.0 10.0 0.0 0.0 0.0 10.0" Properties=species:S:1:pos:R:3:forces:R:3:energies:R:1 energy=4.526710513650151 free_energy=4.526710513650151 pbc="T T T"
N        0.00000000       0.00000000       0.00000000       0.00000000       0.00000000       6.10610192       2.54511867
O        0.00000000       0.00000000       1.80000000       0.00000000       0.00000000      -6.10610192       1.98159184
2
Lattice="10.0 0.0 0.0 0.0 10.0 0.0 0.0 0.0 10.0" Properties=species:S:1:pos:R:3:forces:R:3:energies:R:1 energy=4.9471887035922375 free_energy=4.9471887035922375 pbc="T T T"
N        0.00000000       0.00000000       0.00000000       0.00000000       0.00000000       6.38271496       2.47359435
N        0.00000000       0.00000000       1.80000000       0.00000000       0.00000000      -6.38271496       2.47359435
2
Lattice="10.0 0.0 0.0 0.0 10.0 0.0 0.0 0.0 10.0" Properties=species:S:1:pos:R:3:forces:R:3:energies:R:1 energy=4.671173518197799 free_energy=4.671173518197799 pbc="T T T"
O        0.00000000       0.00000000       0.00000000       0.00000000       0.00000000       5.52108073       2.33558676
O        0.00000000       0.00000000       1.90000000       0.00000000       0.00000000      -5.52108073       2.33558676
2
Lattice="10.0 0.0 0.0 0.0 10.0 0.0 0.0 0.0 10.0" Properties=species:S:1:pos:R:3:forces:R:3:energies:R:1 energy=5.1166561980177825 free_energy=5.1166561980177825 pbc="T T T"
N        0.00000000       0.00000000       0.00000000       0.00000000       0.00000000       5.68218503       2.86059630
O        0.00000000       0.00000000       1.90000000       0.00000000       0.00000000      -5.68218503       2.25605990
2
Lattice="10.0 0.0 0.0 0.0 10.0 0.0 0.0 0.0 10.0" Properties=species:S:1:pos:R:3:forces:R:3:energies:R:1 energy=5.561108500221476 free_energy=5.561108500221476 pbc="T T T"
N        0.00000000       0.00000000       0.00000000       0.00000000       0.00000000       5.88823349       2.78055425
N        0.00000000       0.00000000       1.90000000       0.00000000       0.00000000      -5.88823349       2.78055425
2
Lattice="10.0 0.0 0.0 0.0 10.0 0.0 0.0 0.0 10.0" Properties=species:S:1:pos:R:3:forces:R:3:energies:R:1 energy=5.202084607463913 free_energy=5.202084607463913 pbc="T T T"
O        0.00000000       0.00000000       0.00000000       0.00000000       0.00000000       5.09074977       2.60104230
O        0.00000000       0.00000000       2.00000000       0.00000000       0.00000000      -5.09074977       2.60104230
2
Lattice="10.0 0.0 0.0 0.0 10.0 0.0 0.0 0.0 10.0" Properties=species:S:1:pos:R:3:forces:R:3:energies:R:1 energy=5.661657099874095 free_energy=5.661657099874095 pbc="T T T"
N        0.00000000       0.00000000       0.00000000       0.00000000       0.00000000       5.21314256       3.14470038
O        0.00000000       0.00000000       2.00000000       0.00000000       0.00000000      -5.21314256       2.51695672
2
Lattice="10.0 0.0 0.0 0.0 10.0 0.0 0.0 0.0 10.0" Properties=species:S:1:pos:R:3:forces:R:3:energies:R:1 energy=6.123904255930253 free_energy=6.123904255930253 pbc="T T T"
N        0.00000000       0.00000000       0.00000000       0.00000000       0.00000000       5.36544175       3.06195213
N        0.00000000       0.00000000       2.00000000       0.00000000       0.00000000      -5.36544175       3.06195213
2
Lattice="10.0 0.0 0.0 0.0 10.0 0.0 0.0 0.0 10.0" Properties=species:S:1:pos:R:3:forces:R:3:energies:R:1 energy=5.688530930464719 free_energy=5.688530930464719 pbc="T T T"
O        0.00000000       0.00000000       0.00000000       0.00000000       0.00000000       4.63631317       2.84426547
O        0.00000000       0.00000000       2.10000000       0.00000000       0.00000000      -4.63631317       2.84426547
2
Lattice="10.0 0.0 0.0 0.0 10.0 0.0 0.0 0.0 10.0" Properties=species:S:1:pos:R:3:forces:R:3:energies:R:1 energy=6.1587914726045225 free_energy=6.1587914726045225 pbc="T T T"
N        0.00000000       0.00000000       0.00000000       0.00000000       0.00000000       4.72899363       3.39863593
O        0.00000000       0.00000000       2.10000000       0.00000000       0.00000000      -4.72899363       2.76015554
2
Lattice="10.0 0.0 0.0 0.0 10.0 0.0 0.0 0.0 10.0" Properties=species:S:1:pos:R:3:forces:R:3:energies:R:1 energy=6.634134384874031 free_energy=6.634134384874031 pbc="T T T"
N        0.00000000       0.00000000       0.00000000       0.00000000       0.00000000       4.84049550       3.31706719
N        0.00000000       0.00000000       2.10000000       0.00000000       0.00000000      -4.84049550       3.31706719
2
Lattice="10.0 0.0 0.0 0.0 10.0 0.0 0.0 0.0 10.0" Properties=species:S:1:pos:R:3:forces:R:3:energies:R:1 energy=6.129308906499139 free_energy=6.129308906499139 pbc="T T T"
O        0.00000000       0.00000000       0.00000000       0.00000000       0.00000000       4.18048130       3.06465445
O        0.00000000       0.00000000       2.20000000       0.00000000       0.00000000      -4.18048130       3.06465445
2
Lattice="10.0 0.0 0.0 0.0 10.0 0.0 0.0 0.0 10.0" Properties=species:S:1:pos:R:3:forces:R:3:energies:R:1 energy=6.607648364009046 free_energy=6.607648364009046 pbc="T T T"
N        0.00000000       0.00000000       0.00000000       0.00000000       0.00000000       4.25039110       3.62415989
O        0.00000000       0.00000000       2.20000000       0.00000000       0.00000000      -4.25039110       2.98348847
2
Lattice="10.0 0.0 0.0 0.0 10.0 0.0 0.0 0.0 10.0" Properties=species:S:1:pos:R:3:forces:R:3:energies:R:1 energy=7.092527120173083 free_energy=7.092527120173083 pbc="T T T"
N        0.00000000       0.00000000       0.00000000       0.00000000       0.00000000       4.33105480       3.54626356
N        0.00000000       0.00000000       2.20000000       0.00000000       0.00000000      -4.33105480       3.54626356
2
Lattice="10.0 0.0 0.0 0.0 10.0 0.0 0.0 0.0 10.0" Properties=species:S:1:pos:R:3:forces:R:3:energies:R:1 energy=6.525096153775438 free_energy=6.525096153775438 pbc="T T T"
O        0.00000000       0.00000000       0.00000000       0.00000000       0.00000000       3.73853753       3.26254808
O        0.00000000       0.00000000       2.30000000       0.00000000       0.00000000      -3.73853753       3.26254808
2
Lattice="10.0 0.0 0.0 0.0 10.0 0.0 0.0 0.0 10.0" Properties=species:S:1:pos:R:3:forces:R:3:energies:R:1 energy=7.009516645438104 free_energy=7.009516645438104 pbc="T T T"
N        0.00000000       0.00000000       0.00000000       0.00000000       0.00000000       3.79102828       3.82335071
O        0.00000000       0.00000000       2.30000000       0.00000000       0.00000000      -3.79102828       3.18616593
2
Lattice="10.0 0.0 0.0 0.0 10.0 0.0 0.0 0.0 10.0" Properties=species:S:1:pos:R:3:forces:R:3:energies:R:1 energy=7.5012464663849965 free_energy=7.5012464663849965 pbc="T T T"
N        0.00000000       0.00000000       0.00000000       0.00000000       0.00000000       3.84849625       3.75062323
N        0.00000000       0.00000000       2.30000000       0.00000000       0.00000000      -3.84849625       3.75062323
2
Lattice="10.0 0.0 0.0 0.0 10.0 0.0 0.0 0.0 10.0" Properties=species:S:1:pos:R:3:forces:R:3:energies:R:1 energy=6.877810546825856 free_energy=6.877810546825856 pbc="T T T"
O        0.00000000       0.00000000       0.00000000       0.00000000       0.00000000       3.32028605       3.43890527
O        0.00000000       0.00000000       2.40000000       0.00000000       0.00000000      -3.32028605       3.43890527
2
Lattice="10.0 0.0 0.0 0.0 10.0 0.0 0.0 0.0 10.0" Properties=species:S:1:pos:R:3:forces:R:3:energies:R:1 energy=7.366785271501451 free_energy=7.366785271501451 pbc="T T T"
N        0.00000000       0.00000000       0.00000000       0.00000000       0.00000000       3.35948047       3.99844122
O        0.00000000       0.00000000       2.40000000       0.00000000       0.00000000      -3.35948047       3.36834405
2
Lattice="10.0 0.0 0.0 0.0 10.0 0.0 0.0 0.0 10.0" Properties=species:S:1:pos:R:3:forces:R:3:energies:R:1 energy=7.8633521950131176 free_energy=7.8633521950131176 pbc="T T T"
N        0.00000000       0.00000000       0.00000000       0.00000000       0.00000000       3.39960341       3.93167610
N        0.00000000       0.00000000       2.40000000       0.00000000       0.00000000      -3.39960341       3.93167610
2
Lattice="10.0 0.0 0.0 0.0 10.0 0.0 0.0 0.0 10.0" Properties=species:S:1:pos:R:3:forces:R:3:energies:R:1 energy=7.190139903187149 free_energy=7.190139903187149 pbc="T T T"
O        0.00000000       0.00000000       0.00000000       0.00000000       0.00000000       2.93153622       3.59506995
O        0.00000000       0.00000000       2.50000000       0.00000000       0.00000000      -2.93153622       3.59506995
2
Lattice="10.0 0.0 0.0 0.0 10.0 0.0 0.0 0.0 10.0" Properties=species:S:1:pos:R:3:forces:R:3:energies:R:1 energy=7.6825048095772805 free_energy=7.6825048095772805 pbc="T T T"
N        0.00000000       0.00000000       0.00000000       0.00000000       0.00000000       2.96060735       4.15169993
O        0.00000000       0.00000000       2.50000000       0.00000000       0.00000000      -2.96060735       3.53080488
2
Lattice="10.0 0.0 0.0 0.0 10.0 0.0 0.0 0.0 10.0" Properties=species:S:1:pos:R:3:forces:R:3:energies:R:1 energy=8.18240775547698 free_energy=8.18240775547698 pbc="T T T"
N        0.00000000       0.00000000       0.00000000       0.00000000       0.00000000       2.98785182       4.09120388
N        0.00000000       0.00000000       2.50000000       0.00000000       0.00000000      -2.98785182       4.09120388
2
Lattice="10.0 0.0 0.0 0.0 10.0 0.0 0.0 0.0 10.0" Properties=species:S:1:pos:R:3:forces:R:3:energies:R:1 energy=7.46520139878843 free_energy=7.46520139878843 pbc="T T T"
O        0.00000000       0.00000000       0.00000000       0.00000000       0.00000000       2.57522812       3.73260070
O        0.00000000       0.00000000       2.60000000       0.00000000       0.00000000      -2.57522812       3.73260070
2
Lattice="10.0 0.0 0.0 0.0 10.0 0.0 0.0 0.0 10.0" Properties=species:S:1:pos:R:3:forces:R:3:energies:R:1 energy=7.960071475247368 free_energy=7.960071475247368 pbc="T T T"
N        0.00000000       0.00000000       0.00000000       0.00000000       0.00000000       2.59661524       4.28534905
O        0.00000000       0.00000000       2.60000000       0.00000000       0.00000000      -2.59661524       3.67472243
2
Lattice="10.0 0.0 0.0 0.0 10.0 0.0 0.0 0.0 10.0" Properties=species:S:1:pos:R:3:forces:R:3:energies:R:1 energy=8.46220031276367 free_energy=8.46220031276367 pbc="T T T"
N        0.00000000       0.00000000       0.00000000       0.00000000       0.00000000       2.61437994       4.23110016
N        0.00000000       0.00000000       2.60000000       0.00000000       0.00000000      -2.61437994       4.23110016
2
Lattice="10.0 0.0 0.0 0.0 10.0 0.0 0.0 0.0 10.0" Properties=species:S:1:pos:R:3:forces:R:3:energies:R:1 energy=7.706299073131328 free_energy=7.706299073131328 pbc="T T T"
O        0.00000000       0.00000000       0.00000000       0.00000000       0.00000000       2.25228083       3.85314954
O        0.00000000       0.00000000       2.70000000       0.00000000       0.00000000      -2.25228083       3.85314954
2
Lattice="10.0 0.0 0.0 0.0 10.0 0.0 0.0 0.0 10.0" Properties=species:S:1:pos:R:3:forces:R:3:energies:R:1 energy=8.203003679569278 free_energy=8.203003679569278 pbc="T T T"
N        0.00000000       0.00000000       0.00000000       0.00000000       0.00000000       2.26785648       4.40151008
O        0.00000000       0.00000000       2.70000000       0.00000000       0.00000000      -2.26785648       3.80149360
2
Lattice="10.0 0.0 0.0 0.0 10.0 0.0 0.0 0.0 10.0" Properties=species:S:1:pos:R:3:forces:R:3:energies:R:1 energy=8.706545228262538 free_energy=8.706545228262538 pbc="T T T"
N        0.00000000       0.00000000       0.00000000       0.00000000       0.00000000       2.27871759       4.35327261
N        0.00000000       0.00000000       2.70000000       0.00000000       0.00000000      -2.27871759       4.35327261
2
Lattice="10.0 0.0 0.0 0.0 10.0 0.0 0.0 0.0 10.0" Properties=species:S:1:pos:R:3:forces:R:3:energies:R:1 energy=7.916755020436997 free_energy=7.916755020436997 pbc="T T T"
O        0.00000000       0.00000000       0.00000000       0.00000000       0.00000000       1.96222719       3.95837751
O        0.00000000       0.00000000       2.80000000       0.00000000       0.00000000      -1.96222719       3.95837751
2
Lattice="10.0 0.0 0.0 0.0 10.0 0.0 0.0 0.0 10.0" Properties=species:S:1:pos:R:3:forces:R:3:energies:R:1 energy=8.414787951725366 free_energy=8.414787951725366 pbc="T T T"
N        0.00000000       0.00000000       0.00000000       0.00000000       0.00000000       1.97342640       4.50216996
O        0.00000000       0.00000000       2.80000000       0.00000000       0.00000000      -1.97342640       3.91261799
2
Lattice="10.0 0.0 0.0 0.0 10.0 0.0 0.0 0.0 10.0" Properties=species:S:1:pos:R:3:forces:R:3:energies:R:1 energy=8.919153642872061 free_energy=8.919153642872061 pbc="T T T"
N        0.00000000       0.00000000       0.00000000       0.00000000       0.00000000       1.97932776       4.45957682
N        0.00000000       0.00000000       2.80000000       0.00000000       0.00000000      -1.97932776       4.45957682
2
Lattice="10.0 0.0 0.0 0.0 10.0 0.0 0.0 0.0 10.0" Properties=species:S:1:pos:R:3:forces:R:3:energies:R:1 energy=8.099795505547373 free_energy=8.099795505547373 pbc="T T T"
O        0.00000000       0.00000000       0.00000000       0.00000000       0.00000000       1.70368479       4.04989775
O        0.00000000       0.00000000       2.90000000       0.00000000       0.00000000      -1.70368479       4.04989775
2
Lattice="10.0 0.0 0.0 0.0 10.0 0.0 0.0 0.0 10.0" Properties=species:S:1:pos:R:3:forces:R:3:energies:R:1 energy=8.598776453231647 free_energy=8.598776453231647 pbc="T T T"
N        0.00000000       0.00000000       0.00000000       0.00000000       0.00000000       1.71160507       4.58916217
O        0.00000000       0.00000000       2.90000000       0.00000000       0.00000000      -1.71160507       4.00961428
2
Lattice="10.0 0.0 0.0 0.0 10.0 0.0 0.0 0.0 10.0" Properties=species:S:1:pos:R:3:forces:R:3:energies:R:1 energy=9.103546774571702 free_energy=9.103546774571702 pbc="T T T"
N        0.00000000       0.00000000       0.00000000       0.00000000       0.00000000       1.71400548       4.55177339
N        0.00000000       0.00000000       2.90000000       0.00000000       0.00000000      -1.71400548       4.55177339
